11600
Atoms. Timestep: 200000
1 -35.6918 42.4866 1.50419
1 32.4081 42.8624 1.12869
1 -30.0799 -34.1788 1.1072
1 9.64788 45.7497 1.57514
1 30.5972 21.52 -2.11325
1 -44.4642 38.753 0.788963
1 42.6611 -49.2433 1.84104
1 -38.8125 -35.2674 0.801791
1 -33.4809 -31.4248 0.944773
1 -43.169 -43.8819 1.24697
1 34.6583 -40.4007 3.1565
1 37.4447 -16.8563 0.950194
1 23.1237 -40.3395 3.4862
1 -43.2233 -41.4574 1.09453
1 46.4754 -28.7704 2.22088
1 -23.8983 -23.8224 0.0366366
1 -44.6964 -40.1903 1.30481
1 42.4025 -39.4525 2.05441
1 40.5028 -47.8705 2.04529
1 -42.9322 18.3485 -2.37143
1 43.3985 -30.5619 2.74112
1 43.5969 26.7542 -1.47128
1 -33.4023 5.46739 -3.43863
1 -13.6854 26.2327 -1.02466
1 26.7083 48.4946 1.30844
1 -47.8555 -28.5739 1.40183
1 -22.2549 -3.8995 -2.41647
1 -27.1729 -22.9172 -0.47111
1 29.9584 26.628 -1.12533
1 44.7803 -22.1562 1.59201
1 35.9818 -11.1277 -0.195594
1 24.0913 -14.2738 2.42537
1 -44.097 41.7203 1.31216
1 -19.8471 -9.63227 -0.829464
1 48.4084 -13.066 -1.0795
1 -47.0507 10.6258 -4.03279
1 34.2678 -42.2667 2.64475
1 39.6624 -10.4748 -0.850631
1 -42.295 4.14448 -3.76174
1 30.3973 -37.5149 3.73142
1 28.9791 2.99344 -1.47095
1 32.5856 -27.7245 3.42739
1 -35.8503 -24.3563 -0.185481
1 -43.1447 -18.0665 -0.855506
1 -28.4792 37.5402 1.31871
1 37.2243 28.3816 -0.956383
1 37.976 34.8932 0.417614
1 -45.0451 -8.56795 -3.06584
1 -42.9787 -27.911 0.732803
1 -42.844 29.2248 -0.169086
1 47.2032 -23.8826 1.99926
1 48.6918 -26.2505 1.41718
1 -43.7736 9.65797 -4.17656
1 -47.4365 -24.0892 0.749017
1 -14.8275 -25.9837 1.48873
1 -40.2689 15.8503 -2.87711
1 37.994 -43.0765 2.70813
1 33.5839 -17.2079 1.54084
1 -12.133 -26.3616 1.86925
1 14.8024 3.06982 0.249562
1 40.978 -29.8911 2.89638
1 33.1064 0.777538 -1.89037
1 34.0485 18.1201 -2.90606
1 -31.3587 3.53635 -3.3601
1 -26.079 -8.97627 -1.78795
1 -39.9431 -14.4446 -1.75573
1 -25.3927 9.21727 -2.6766
1 -39.617 40.0608 1.31289
1 36.3364 20.4296 -2.99696
1 16.1929 13.0028 -2.05548
1 20.3621 -23.2199 3.30285
1 -35.9443 -15.8983 -0.821865
1 -39.9817 -3.62061 -3.0281
1 -31.8484 33.5342 1.22257
1 -37.9168 -17.2555 -1.42175
1 -39.6631 5.28167 -3.93531
1 -11.6356 30.4331 -1.24927
1 -40.3803 -28.2622 0.602925
1 -46.0342 32.3109 -0.418429
1 -36.5309 25.1468 -0.85009
1 -32.9355 -27.6647 0.574925
1 45.6769 28.2964 -1.05517
1 -24.8064 11.4359 -2.28578
1 -31.1962 14.3022 -3.02813
1 38.9164 21.6572 -2.62171
1 13.9722 26.8545 -2.1437
1 35.2335 15.6361 -2.86935
1 37.2204 -5.71331 -1.59976
1 -28.058 8.79208 -2.93725
1 28.6474 -42.5973 2.49617
1 49.0168 -9.58035 -1.88257
1 25.8117 -6.61217 1.18827
1 41.7388 33.0531 0.308326
1 14.0288 25.9358 -1.87067
1 -47.1364 17.5665 -3.08061
1 19.5131 -28.5711 3.32555
1 27.2731 42.9793 0.791027
1 44.476 48.73 1.75716
1 31.6468 16.2547 -2.28126
1 42.9855 -48.3694 1.83311
1 45.1099 35.0545 0.174076
1 40.1463 13.7016 -3.25899
1 27.3317 17.5696 -2.09123
1 45.2987 27.6504 -1.16253
1 -37.6376 28.4239 -0.0567347
1 -10.3935 49.2402 -0.181909
1 38.7095 9.47527 -3.05509
1 -38.2792 10.4229 -3.58958
1 -44.7751 -12.3193 -1.55977
1 41.0319 43.2703 1.36579
1 41.9568 29.824 -0.661838
1 -39.9403 4.03967 -3.82521
1 -42.6516 10.8746 -3.91057
1 -13.5137 23.936 -1.14287
1 -7.8059 -37.8923 2.8104
1 -3.98447 -44.1131 1.67777
1 -36.4926 -10.874 -1.70056
1 -42.9472 -22.7326 -0.544056
1 35.5282 -17.4837 1.37179
1 -14.4262 30.2639 -0.996627
1 7.66752 -22.9076 2.36597
1 -43.3409 -9.51739 -2.36377
1 39.1402 -47.9234 2.23704
1 36.168 34.155 0.428985
1 7.65548 -10.7896 2.78179
1 -42.7639 -36.1906 1.21829
1 -42.3821 39.8156 1.25743
1 18.7952 -36.843 3.45326
1 41.8328 -45.0577 2.01262
1 15.0951 -19.1943 2.56445
1 32.6317 -43.1742 2.60157
1 32.5346 -45.0429 2.75434
1 23.1306 -1.68515 0.134923
1 -43.3859 -39.0446 1.03467
1 47.1737 -42.8051 1.65382
1 19.4515 -26.747 3.16118
1 -37.6702 -25.1393 -0.12861
1 40.3033 -8.42357 -1.05438
1 38.8879 -30.8939 2.73054
1 -42.6685 -16.5669 -1.21159
1 -16.3511 -26.81 1.64904
1 6.87563 -12.2304 2.71082
1 43.6779 -35.0495 2.20347
1 -45.7169 6.2551 -4.45363
1 32.5247 -2.089 -1.27496
1 40.375 -15.3067 -0.0618104
1 -46.3139 -26.7637 1.00951
1 -41.3541 -17.8217 -1.36282
1 2.35093 -16.0398 1.72035
1 21.84 -13.1476 2.59933
1 42.958 -24.799 2.45607
1 -45.9507 4.08674 -4.11199
1 -12.3802 -19.9392 0.970021
1 -28.1667 -10.5885 -1.53039
1 -21.1772 -24.1121 0.564754
1 45.5065 -16.7375 -0.286114
1 -22.4578 13.6033 -1.95647
1 27.0225 -8.13604 1.0379
1 -34.4319 3.19721 -3.32723
1 -31.1425 -12.5771 -0.825436
1 -38.2354 -18.053 -1.03159
1 21.1539 -24.9752 3.34812
1 -35.5624 -28.7652 0.631601
1 -41.8482 -11.3364 -2.03874
1 -43.7627 -27.3025 0.771816
1 -44.6227 45.884 1.44917
1 -32.2344 10.8829 -3.25261
1 -48.0673 -29.4817 1.72705
1 -30.5795 -15.1428 -0.647016
1 -46.6127 -18.1548 -0.407563
1 -24.3875 5.56278 -2.19738
1 -19.6541 -14.7534 0.00738139
1 46.7718 -10.482 -1.18856
1 -40.6302 -3.1218 -3.02183
1 -18.0543 -12.3193 -0.355912
1 45.7688 -26.2914 2.2239
1 -9.38716 -11.3498 -0.826844
1 -48.5756 1.98199 -3.8389
1 -24.8609 -6.6117 -2.08304
1 37.6198 8.37923 -3.0474
1 0.419462 -25.7963 2.03178
1 -25.3522 -25.901 0.582982
1 -31.0213 -0.755379 -2.74855
1 -33.7885 -3.89546 -2.73474
1 -46.714 -47.3644 1.69674
1 -28.5773 -7.38638 -2.08594
1 47.8453 -48.3583 1.8527
1 31.6672 47.7582 1.64306
1 -40.4169 24.3725 -0.946933
1 43.6882 -1.02111 -3.36341
1 -46.2245 -7.51081 -2.82603
1 32.6211 -41.2152 2.88423
1 -15.2758 -47.5996 -0.32756
1 47.7672 -35.6966 1.42987
1 5.33289 23.0702 -2.29636
1 15.991 -2.82266 0.8238
1 -31.053 31.2445 0.236837
1 46.6635 -4.16409 -3.23317
1 -44.571 17.4906 -2.84875
1 34.1282 -6.75804 -0.761258
1 -36.5622 0.121827 -3.16818
1 39.4467 -2.57743 -2.74675
1 30.9609 15.8242 -1.97233
1 -25.8926 -34.7941 1.49405
1 44.4759 13.9679 -3.455
1 37.6088 43.5228 1.51428
1 -40.0418 36.1644 1.11653
1 32.8888 14.0161 -2.31533
1 48.9204 42.8534 1.28864
1 42.7144 26.125 -1.69978
1 -48.7232 -6.829 -2.79296
1 39.2524 11.1607 -2.91351
1 -34.9646 10.1182 -3.54832
1 30.092 -41.117 2.70496
1 42.09 10.393 -3.40826
1 37.207 -27.8789 2.48957
1 -25.4365 -24.0435 0.110173
1 30.0633 30.6589 -0.65436
1 -15.0145 49.2247 -0.487066
1 31.4283 32.5504 -0.447246
1 42.097 -43.824 2.00232
1 -20.4572 28.4259 -0.749353
1 48.4474 -11.1688 -1.53793
1 -43.1869 -8.64382 -2.42143
1 -35.7474 34.3679 0.96347
1 -42.9947 -47.8395 1.30414
1 -5.66716 27.8369 -1.94497
1 -29.1948 34.3607 1.03119
1 10.0667 -42.4485 3.98291
1 32.6353 24.3249 -1.6086
1 -28.5158 44.4811 0.840715
1 -40.1778 -44.565 1.46271
1 -43.4075 -15.062 -1.38196
1 35.741 -27.4138 2.6252
1 -46.3096 -45.5302 1.38812
1 -23.6153 -42.9611 0.570961
1 36.116 15.3608 -3.3489
1 -47.4344 -22.3987 0.732636
1 31.877 45.993 1.48566
1 41.9021 43.5942 1.46124
1 -11.8114 45.7505 -0.566705
1 44.4005 -43.7601 1.92348
1 39.5054 -6.08267 -1.48533
1 -39.415 -27.5598 0.684746
1 27.4168 -26.5246 3.23668
1 -12.2073 -30.5724 2.66457
1 11.102 -22.3586 2.73406
1 43.7012 0.863939 -3.62459
1 -33.2118 -35.74 0.551078
1 -48.4261 -16.4826 -0.555711
1 42.1578 -35.4143 2.44189
1 -44.183 -38.4495 1.24401
1 -30.0701 -12.8201 -0.808897
1 47.7126 38.0389 1.15875
1 31.1449 -13.1127 1.19531
1 43.5045 46.6188 1.97604
1 45.1883 -30.8079 2.28675
1 21.9945 -15.3983 2.69221
1 40.217 -24.066 2.13844
1 -38.1928 -44.2295 1.6383
1 9.08416 -21.8401 2.54503
1 -30.0991 -25.7376 0.0583431
1 45.3641 -17.4749 0.018956
1 -32.8083 -12.8367 -0.933294
1 -47.4618 -8.95014 -2.33131
1 -43.1593 14.7634 -3.4336
1 -46.7498 -38.0384 1.67642
1 -29.6673 -27.3955 0.51835
1 42.9821 -7.56815 -1.49388
1 0.502262 -28.573 2.40884
1 37.8817 -28.3013 2.54273
1 -24.7822 -18.8191 -0.317812
1 -31.0002 11.6359 -3.15966
1 28.797 -6.71967 0.380487
1 -31.085 -32.4741 0.944634
1 -45.1387 -2.77152 -3.28452
1 -7.23295 -16.849 0.157275
1 -17.4449 -25.4133 1.06381
1 -16.5097 2.96311 -1.12884
1 -30.6754 0.198679 -2.98036
1 33.2395 28.5497 -0.9818
1 -29.0984 15.1747 -2.68822
1 -7.65255 -20.0166 0.697788
1 -29.0543 -17.4218 -0.746534
1 -34.6952 -30.141 0.680851
1 -15.7737 -20.1737 0.678005
1 8.98544 -26.065 2.54042
1 -48.1199 11.2605 -3.71832
1 -48.5588 15.2085 -3.28083
1 -47.0297 -23.2176 0.779419
1 -47.6866 -14.8666 -0.864797
1 -45.025 -17.8637 -0.461528
1 -47.6254 -4.10857 -3.07554
1 -5.46044 9.36278 -1.63159
1 -44.2062 28.3791 -0.600859
1 -31.3625 -3.26367 -2.58462
1 -1.99173 -5.90464 0.403485
1 -39.0153 5.85059 -3.96291
1 -31.8616 -20.8563 -0.525094
1 -44.7591 -15.3041 -1.1895
1 38.398 -0.671269 -3.0653
1 29.7951 3.86909 -1.50583
1 36.3073 6.84862 -2.3789
1 -19.8986 3.54002 -1.95498
1 7.56245 9.43871 -1.31031
1 48.7666 -48.1286 1.63979
1 -30.7707 4.76056 -3.4264
1 42.4141 -30.6546 2.85719
1 -25.5309 -30.1224 1.3759
1 31.2021 14.8613 -1.72493
1 -34.0363 6.56117 -3.59951
1 11.2602 -6.67201 1.78209
1 -8.8799 6.61493 -1.38336
1 -30.8759 40.2005 1.72196
1 -38.409 1.49226 -3.36704
1 -43.9606 46.9823 1.4837
1 -26.0929 22.5365 -1.16541
1 45.4006 10.3644 -3.78238
1 -19.2226 -43.5107 0.675066
1 -31.3142 37.4701 1.63871
1 34.8925 38.1575 1.14099
1 42.1134 14.9166 -3.47434
1 40.3921 12.5625 -3.15775
1 -37.5219 44.131 1.82171
1 -24.6841 -43.4416 0.692013
1 41.1892 -14.819 -0.239164
1 -16.3796 41.5294 -1.01372
1 -45.8692 35.9069 0.224618
1 -0.773536 13.2937 -2.10697
1 16.1445 23.2805 -1.97072
1 44.9778 3.31437 -4.09322
1 -26.871 -49.1371 0.763239
1 -48.6824 29.9251 -1.09682
1 45.7989 11.1828 -3.72477
1 43.8747 33.88 0.211082
1 -34.109 30.8202 0.346489
1 -45.7777 33.8635 -0.228326
1 -16.069 42.4868 -0.926954
1 -11.3126 27.1876 -1.60294
1 -45.4416 -41.7524 1.34772
1 -35.0379 25.9023 -0.791397
1 35.9864 0.454668 -2.44386
1 -32.857 35.0834 1.32996
1 -24.8253 -48.7227 0.626283
1 -14.1703 -36.6413 1.99264
1 30.8707 -36.403 3.58057
1 38.1114 40.8008 1.16216
1 -31.6583 18.5625 -2.21267
1 30.2733 41.0238 1.16347
1 -29.3602 20.892 -1.71493
1 -25.5763 25.2978 -0.735196
1 28.9818 48.1987 1.55057
1 18.0975 -38.9394 3.62195
1 37.0943 44.1989 1.55136
1 -29.1074 39.9372 1.52688
1 27.5236 -38.1128 3.62633
1 47.0371 -34.5222 1.71648
1 20.2701 45.9969 1.41755
1 31.2938 38.1699 0.736255
1 34.9396 25.4601 -1.75504
1 -40.3535 -29.9744 0.811971
1 -46.485 -19.7967 0.128056
1 -36.8528 -24.637 -0.0387964
1 33.5038 -49.1966 2.26427
1 -35.8954 -25.2476 -0.0415612
1 -40.5369 -16.1005 -1.58667
1 -48.6795 -40.296 1.8205
1 41.6592 -26.5698 2.84896
1 -43.4947 -48.619 1.18307
1 -24.8365 -26.6489 0.769478
1 -24.1082 18.0661 -1.46856
1 -41.966 -43.316 1.14133
1 -19.5443 -4.06934 -1.71227
1 -22.7753 -28.9338 1.13457
1 -37.0873 -17.0187 -1.05391
1 -35.1734 1.34151 -3.5076
1 40.5504 -20.755 1.43879
1 -37.907 2.96783 -3.54839
1 15.0635 -33.5911 3.60301
1 -41.8006 -3.68633 -3.09945
1 -46.3929 -23.9591 0.612226
1 -43.7991 -11.8988 -1.84835
1 -38.9279 -14.487 -1.6616
1 30.0192 -11.4052 1.15431
1 -15.2185 13.593 -1.6441
1 29.8612 7.94626 -2.14137
1 -47.8049 -11.8319 -1.4494
1 -14.9205 -14.5192 -0.14974
1 -29.5279 -1.01152 -3.01581
1 -43.8786 -4.19683 -3.11149
1 -48.9881 -37.9891 1.82879
1 44.3199 40.7241 0.927077
1 -37.2354 -10.0821 -2.11693
1 -14.1093 -18.6131 0.432771
1 29.601 1.3723 -1.31308
1 -4.37286 -34.1445 2.85682
1 39.0863 3.22594 -3.52599
1 -15.0186 18.5815 -1.54406
1 28.1337 -5.79347 0.37253
1 -39.5586 -16.0817 -1.64684
1 -36.9772 -27.7701 0.569263
1 -38.0413 6.76835 -3.75179
1 -26.3925 -7.94062 -1.96838
1 -30.7137 35.2586 1.16228
1 48.6779 14.7169 -3.11552
1 -40.4727 3.26004 -3.73422
1 -19.803 -25.9289 0.956859
1 41.6283 -4.50682 -2.10937
1 -28.5511 -5.88181 -2.33113
1 -19.437 -12.3935 -0.334227
1 -31.6148 -18.5838 -0.670053
1 -16.8006 19.0033 -1.37749
1 -41.3067 12.6719 -3.29442
1 13.8147 -18.1586 2.81366
1 -32.7335 -9.96436 -1.59981
1 11.7244 -0.51487 0.681436
1 37.3234 -21.9909 2.06199
1 44.246 6.70659 -3.89449
1 -43.2264 2.81038 -3.91839
1 39.659 21.4993 -2.53028
1 11.6851 18.434 -1.90488
1 -0.405342 36.2181 -1.09759
1 38.0542 28.6418 -0.81109
1 -40.2035 47.8966 1.78401
1 -24.7398 0.313351 -2.42588
1 -39.5025 1.53047 -3.32502
1 -47.7279 15.691 -3.37058
1 -34.3924 18.7281 -2.52802
1 -29.9538 32.6887 0.769454
1 -19.0967 12.6393 -1.66272
1 43.7993 12.7793 -3.65202
1 30.1605 3.08792 -1.36889
1 43.3702 24.719 -1.78039
1 -39.108 30.262 0.508763
1 -40.156 29.794 -0.0345639
1 28.584 -27.6498 3.33279
1 -26.3121 -3.18463 -2.41055
1 -41.0499 45.7985 1.69512
1 1.50171 21.5923 -2.84897
1 -25.402 33.3474 0.251722
1 26.1662 4.03486 -1.5903
1 43.5161 30.9689 -0.472886
1 45.5671 9.1145 -3.71096
1 -14.0375 16.418 -1.61149
1 -42.7517 19.568 -2.03917
1 0.756419 48.8722 1.3951
1 36.1846 27.3282 -1.60323
1 -24.1878 14.0605 -2.29501
1 -27.6558 -19.5579 -0.681736
1 -31.1188 40.936 1.5009
1 26.1698 -1.86989 -0.127917
1 40.8085 17.8336 -2.89749
1 38.7037 28.2202 -1.16503
1 -5.51197 28.7726 -1.93007
1 23.6828 -24.1131 3.10196
1 45.4977 37.678 0.748991
1 -32.6938 -42.6899 0.815308
1 -32.0138 -23.8683 0.0922314
1 -44.2876 33.1474 -0.0562813
1 -48.4041 44.7275 1.15882
1 -31.5312 -37.6541 0.798841
1 -36.9731 43.6191 1.39276
1 -33.4735 -41.0879 0.654648
1 28.3209 45.1506 0.973873
1 17.6516 -0.63197 0.365559
1 -45.9209 42.8459 1.25756
1 -48.3758 -47.7928 1.55355
1 37.7656 -22.9997 2.21435
1 34.6236 33.353 -0.0314558
1 -35.3737 32.4227 0.689381
1 43.3738 -9.34571 -1.33763
1 45.5895 -44.215 1.8144
1 -11.3597 -36.4424 2.50657
1 -48.1973 -42.8188 1.6075
1 42.6188 -40.29 1.84659
1 37.1632 -28.824 2.68362
1 -43.5517 -47.0212 1.30351
1 -35.9776 29.0491 -0.00263284
1 35.6372 -19.9313 1.8134
1 -38.63 -42.5577 1.40499
1 -14.6689 -34.3688 2.08742
1 -24.6919 23.9122 -0.81025
1 -44.5724 9.17398 -4.16803
1 36.7478 12.4973 -2.88944
1 -24.7124 -32.7542 1.67311
1 31.2139 -17.0832 1.76201
1 -24.2687 -14.0846 0.0310024
1 44.9977 -32.8452 2.32858
1 -36.3674 5.27316 -3.85141
1 37.0813 2.57855 -3.1104
1 -46.8239 -28.1095 1.26497
1 28.5835 -32.0235 3.21335
1 30.9333 -15.3407 1.60432
1 -43.5342 -18.9301 -0.745701
1 38.4557 43.6958 1.25777
1 -31.9096 25.985 -1.231
1 -10.0371 -11.7946 -0.609459
1 -40.4398 -34.8508 0.977713
1 -46.1887 -27.7096 1.21288
1 25.1669 -34.5994 3.12199
1 -16.5942 -18.0233 -0.00975673
1 -23.6316 35.3108 0.160243
1 -44.8062 -35.0388 1.47556
1 46.0995 -22.2433 1.4389
1 20.2272 26.7328 -1.72941
1 41.3337 -32.2358 2.93596
1 -30.7588 -11.7982 -0.827977
1 36.0123 -13.3886 0.252026
1 -34.8544 -21.358 -0.762194
1 39.6959 -27.27 2.45603
1 -47.7585 -25 0.949183
1 -22.166 24.4235 -0.705442
1 -26.2769 -6.1235 -2.37854
1 42.4527 -4.4278 -2.40251
1 40.926 3.87399 -3.82168
1 -25.3203 44.9098 0.439858
1 -40.9392 -49.102 1.80718
1 45.4764 12.0863 -3.62494
1 -22.1393 -13.8046 -0.13142
1 -20.7845 0.984759 -2.10217
1 -23.6627 -28.8147 0.906064
1 20.3518 15.5343 -2.5774
1 -17.3447 2.85204 -1.47685
1 40.4701 20.0514 -2.74259
1 43.937 22.7341 -2.09923
1 -23.7271 -8.03991 -1.75588
1 -28.2959 11.8816 -2.66223
1 -39.4675 -0.752734 -3.22012
1 37.3372 -12.0822 -0.155406
1 2.55866 18.8008 -2.80746
1 -22.2113 -17.3514 0.0530579
1 -35.1702 -5.38885 -2.71238
1 36.4134 1.68578 -3.02603
1 -45.8947 11.4326 -4.07708
1 -21.9392 47.6758 0.114894
1 30.6893 -28.3025 3.54412
1 -48.8974 -15.9093 -0.679499
1 -33.6578 26.0347 -0.890053
1 -29.1063 -41.2896 0.289526
1 32.6217 20.218 -2.48202
1 -29.0881 -26.7236 0.115747
1 0.952576 5.29719 -0.63245
1 19.0088 39.5154 0.558058
1 -14.7085 -15.3801 -0.135181
1 -35.9352 -7.4258 -2.49766
1 -39.2384 13.9233 -3.22837
1 -16.013 30.9089 -0.731495
1 -9.17381 37.8391 -1.62429
1 40.5273 9.75852 -3.16151
1 43.4084 44.8426 1.60335
1 -46.1882 30.3739 -0.782123
1 44.8386 33.8753 -0.0626267
1 -24.5635 38.118 0.69453
1 33.2186 13.2244 -2.19762
1 -20.8357 32.3377 -0.709787
1 35.6831 21.0284 -2.98063
1 -12.523 30.3826 -1.01833
1 35.9458 -38.119 3.16594
1 42.4572 -33.4351 2.77708
1 27.1535 35.0229 -0.313333
1 -41.9429 24.4862 -0.814396
1 13.5208 15.9059 -1.91329
1 -41.0067 43.1662 1.36849
1 -19.1155 46.0201 -0.18885
1 -45.3923 16.9971 -3.14729
1 -11.1085 -48.8632 -0.0154978
1 -19.9335 19.7852 -1.44305
1 -18.6314 -27.9405 1.45055
1 -29.0861 -18.4155 -0.732854
1 -23.2989 14.1107 -2.16554
1 -33.8705 13.5401 -3.02441
1 43.1523 -34.1789 2.58726
1 47.7833 -36.6302 1.60437
1 -38.5292 28.2244 -0.0998553
1 -39.0047 -30.3165 0.791117
1 -43.4824 25.789 -0.771729
1 36.5842 43.5324 1.46587
1 31.7075 -45.6054 2.38068
1 -28.4766 -49.0131 0.826047
1 22.8899 15.933 -1.99449
1 -43.1892 -29.8605 0.92494
1 28.9574 41.9602 1.0533
1 -43.0309 24.4582 -0.809551
1 -40.3415 -36.8666 1.10475
1 -47.1188 -7.76635 -2.73273
1 -34.3053 -31.5844 0.83487
1 35.1662 -11.3556 0.122204
1 38.2969 40.0249 1.05115
1 -30.6525 -42.7583 0.467439
1 -36.2949 -48.7281 1.80134
1 -39.2998 -3.2401 -3.12987
1 -48.2687 -34.019 1.57396
1 -45.01 -9.23341 -2.43477
1 -40.5698 -32.5787 0.714343
1 -46.7359 -12.9486 -1.20159
1 -39.8783 -33.8589 1.15154
1 44.9938 46.5967 1.73037
1 -34.1332 -27.7851 0.568277
1 17.8412 -20.6533 2.65583
1 -36.946 44.8644 1.67282
1 39.0325 -45.2812 2.57143
1 -35.5668 22.0613 -1.9035
1 -23.0413 -27.7653 0.811345
1 -40.111 38.2214 1.20833
1 -33.272 -19.1768 -0.815671
1 -28.7687 -14.2484 -0.753887
1 -11.3519 -9.3248 -0.708829
1 -23.6655 -24.6371 0.343687
1 -22.682 15.4314 -1.89705
1 -27.5211 38.5571 1.37328
1 25.3619 -20.5362 3.03463
1 19.8277 41.6078 0.865388
1 -36.8831 -13.6338 -1.44333
1 -42.7146 -42.168 1.02207
1 -32.3755 14.3246 -3.07324
1 27.1399 -39.4611 3.40349
1 -39.0445 -26.118 0.119651
1 28.6172 -18.5641 2.47041
1 -37.7768 -28.8789 0.924398
1 -34.7591 -22.9092 -0.194972
1 -38.1964 -22.6155 -0.750074
1 -47.256 -20.1055 0.209204
1 -43.5841 -16.5021 -0.778373
1 48.6691 -10.2357 -1.46353
1 -41.7652 -10.4639 -2.18372
1 -48.2598 -20.1326 0.357286
1 -44.2653 -47.9968 1.1671
1 -37.1809 2.65311 -3.39588
1 2.77841 -2.85834 1.07546
1 -13.6791 6.02635 -1.43979
1 25.7 -25.3258 3.4175
1 22.0907 7.39567 -1.46746
1 42.4681 -9.40499 -1.06016
1 31.052 2.50829 -1.39975
1 -2.49147 36.9836 -1.37776
1 41.6661 -33.0574 2.89448
1 -22.1186 2.52886 -2.1107
1 30.4096 -20.3248 2.24108
1 44.4743 1.78052 -3.91658
1 -37.718 13.1788 -3.29192
1 26.7786 6.37725 -2.07234
1 -13.688 1.71 -0.915275
1 47.3072 -29.7087 1.79588
1 42.3968 28.3619 -1.06221
1 -42.9358 9.00753 -4.29326
1 -9.72073 -45.6946 0.731101
1 40.5676 -16.3799 0.458123
1 -23.1355 9.82754 -2.15273
1 24.7453 30.6619 -1.13381
1 -9.01808 31.0083 -1.82759
1 45.3484 16.1119 -3.34066
1 48.0386 26.7739 -1.29479
1 -30.8369 32.944 0.65617
1 29.7323 42.9434 1.159
1 -40.0738 18.7518 -2.58821
1 35.4822 -0.711422 -2.13586
1 29.1136 30.2699 -0.679233
1 45.3421 1.33967 -4.09859
1 -18.4403 0.529968 -1.78653
1 44.7341 15.4363 -3.42782
1 -43.3979 30.1283 -0.280296
1 -21.0897 8.09696 -2.07028
1 -43.3486 12.9995 -3.7047
1 -14.4771 1.33929 -0.980522
1 44.2171 2.68387 -3.82969
1 -27.0248 22.5221 -1.20346
1 43.5358 7.91632 -3.84506
1 43.3768 -3.84187 -2.70837
1 -36.5665 7.04513 -3.91593
1 -40.1759 8.88845 -4.12533
1 48.2206 29.0208 -1.21537
1 -19.4799 40.3096 -0.389488
1 -43.4396 37.4974 0.682414
1 24.3183 14.3775 -1.72766
1 -39.9721 37.2452 1.20557
1 45.9736 35.2007 0.0491661
1 40.6647 36.0145 0.616549
1 -1.85951 46.3391 0.455405
1 47.4749 43.6049 1.62609
1 -35.9314 45.0711 1.68008
1 37.0449 34.6633 0.403789
1 -40.1919 13.9058 -3.29735
1 29.6504 34.8158 0.308244
1 -43.3587 19.15 -2.30458
1 39.3843 34.7118 0.378245
1 -45.4954 -45.8741 1.19479
1 -43.933 26.5244 -0.861711
1 45.2049 24.7592 -1.57013
1 39.2158 29.9702 -0.396868
1 28.0574 8.71502 -1.96465
1 35.8237 -35.8564 3.64092
1 42.0403 29.0838 -0.767809
1 34.3968 42.749 1.16257
1 -41.4171 -34.6535 1.12143
1 -31.4609 23.8615 -1.70588
1 -2.76428 48.3723 1.22357
1 31.8993 44.861 1.37166
1 -46.6569 43.3407 1.17586
1 -24.5838 39.4348 1.00963
1 -38.9487 3.5293 -3.74592
1 46.3965 -46.2579 1.7595
1 -37.9877 29.2124 -0.0457075
1 25.5384 -39.0966 3.1991
1 0.445096 -27.8417 2.2409
1 31.9321 -26.0968 3.15628
1 -26.5151 44.1194 0.677435
1 38.6063 12.2649 -2.8752
1 41.3153 -3.18915 -2.60265
1 9.65262 37.3821 -0.0230943
1 -22.2139 -33.0271 1.78106
1 -43.6144 -40.7423 0.978595
1 40.8258 47.2763 1.66449
1 -34.9758 -35.8476 0.309028
1 -33.6897 -21.6475 -0.691633
1 34.5098 -30.3794 3.31491
1 26.7521 -11.1776 2.15657
1 -40.056 8.09419 -4.31015
1 41.8253 -46.1722 2.23397
1 46.7392 46.5111 1.40097
1 35.9916 -10.3568 -0.148163
1 -38.9561 41.1946 1.41785
1 -44.4772 -20.3608 -0.318714
1 45.4366 -11.3694 -0.722373
1 -47.4589 -47.6531 1.66906
1 -44.949 -30.5303 1.06016
1 -25.1175 18.4815 -1.49707
1 39.0875 -29.5823 2.74177
1 -35.7435 -35.5219 0.339372
1 41.7955 -11.7498 -0.803985
1 34.4265 9.10657 -2.29204
1 35.3076 -5.33223 -1.32754
1 -22.596 -16.5114 -0.0655046
1 -30.8067 -28.7784 0.815141
1 39.4084 -30.3262 2.88566
1 -7.82048 -9.04759 -0.687203
1 -46.7106 -4.50747 -3.18704
1 -2.54721 5.23131 -0.5629
1 30.0719 -8.12341 0.765344
1 -29.7093 -29.4249 0.595788
1 36.8621 -21.2458 1.92415
1 33.8568 -8.94638 -0.167887
1 -26.3297 -20.4297 -0.638431
1 -18.9322 3.15214 -1.62873
1 33.4364 31.6138 -0.567732
1 -43.4298 -33.0888 0.901306
1 40.5309 14.5356 -3.28193
1 29.1994 -43.1656 2.05252
1 -5.91411 -1.48736 -0.446268
1 -48.439 -2.46313 -3.46031
1 -29.2898 -7.90257 -2.06072
1 -29.8635 13.8294 -3.05224
1 43.7171 -5.6946 -2.12702
1 -45.3035 20.8571 -2.10707
1 -4.58074 6.37684 -0.775852
1 15.6852 17.4083 -2.24749
1 -43.6794 11.2423 -3.86742
1 -2.96462 -3.28268 0.396888
1 -36.3672 2.38757 -3.59391
1 -44.5143 -23.5429 0.0937789
1 45.5464 44.238 1.39583
1 27.7497 -8.62953 1.08284
1 20.3948 21.5417 -2.14512
1 -21.1481 23.1765 -1.01851
1 -16.5481 10.9125 -1.60029
1 -33.6488 -2.45747 -2.82923
1 -43.8341 29.2361 -0.455995
1 -48.2559 -13.8297 -1.20368
1 20.7913 11.662 -1.98948
1 -32.3805 6.95405 -3.47865
1 -44.5911 12.5366 -3.71461
1 48.4846 2.26973 -3.80989
1 -16.5395 9.83028 -1.67088
1 27.1603 24.9658 -1.81149
1 45.6406 42.3606 1.20824
1 -38.3854 30.0533 0.0154079
1 -36.2409 39.7029 1.50894
1 40.1569 -11.8079 -0.787402
1 19.8968 -1.50835 0.367583
1 45.6065 5.73833 -4.00321
1 -46.1746 10.3136 -4.1143
1 -48.4108 40.1247 1.14411
1 -47.0107 15.2325 -3.61203
1 42.9317 47.2575 1.8823
1 37.3333 40.0994 1.00042
1 -41.1432 8.08824 -4.25604
1 -47.4685 41.8648 1.13261
1 -44.2657 2.77957 -3.96426
1 45.2285 36.8436 0.528701
1 -29.083 47.6776 0.887932
1 41.1642 -31.2992 2.84626
1 -39.4921 27.5944 -0.259652
1 -36.8002 11.5786 -3.58665
1 -22.0985 23.5206 -0.843781
1 -40.1454 -47.8121 1.95949
1 -33.0314 31.9533 0.359872
1 42.4528 42.8588 1.26634
1 -48.6561 -32.8232 1.69312
1 42.3105 -19.8545 0.834825
1 -48.4451 34.7785 0.29041
1 -41.0017 35.9488 0.933718
1 22.263 45.0617 1.36087
1 9.8921 -25.28 2.58527
1 27.7975 -1.67123 -0.5196
1 -34.9708 34.4516 1.20684
1 -40.4709 29.0652 -0.243109
1 -21.7231 35.2253 -0.435714
1 -34.0156 -26.3621 0.024098
1 -23.0224 -17.717 -0.242815
1 48.1392 -47.3515 1.83054
1 -33.4789 -22.9185 -0.297723
1 -34.3048 29.7153 0.150483
1 -28.6058 11.1648 -2.88552
1 -16.0033 -31.7229 2.19931
1 -44.4185 37.7882 0.817348
1 -36.3595 29.9166 0.142213
1 48.8731 44.3425 1.318
1 -27.4451 -44.8295 0.652753
1 31.3466 35.5806 0.449753
1 -35.6119 -34.6518 0.312383
1 -23.8156 47.8613 0.527667
1 -48.3762 -25.757 1.13077
1 37.4004 -46.3465 2.64848
1 7.45304 -34.1205 3.43564
1 42.0946 -25.5689 2.80235
1 -32.1926 -32.4681 1.0238
1 -32.3531 -38.2842 0.583454
1 -40.7907 -38.9513 0.995728
1 27.1292 -28.2903 3.36872
1 -38.4394 -35.915 0.919026
1 -37.8305 -31.6337 0.876058
1 -30.8093 29.8437 -0.172069
1 -40.9303 30.1077 -0.0360871
1 26.7819 -20.3461 2.9018
1 31.6349 -14.9089 1.28085
1 -45.3659 -43.8188 1.30084
1 19.6378 20.8615 -2.21872
1 -8.61222 -17.3553 0.150693
1 35.7304 -15.6152 0.659652
1 47.249 -5.59452 -2.81401
1 -28.3345 -29.6842 0.833562
1 -22.2537 -10.348 -0.86924
1 -36.475 -45.1068 1.3887
1 -41.1991 -16.8228 -1.54578
1 -40.5419 -17.4909 -1.39492
1 -29.8041 -9.38087 -1.75821
1 39.2942 -8.03396 -0.995529
1 -15.571 -3.25336 -1.23512
1 -43.5114 34.9714 0.532893
1 -34.9684 -47.0247 1.63555
1 31.2307 -5.13725 -0.598452
1 17.909 -19.5841 2.57334
1 -22.7529 44.8935 0.337604
1 -26.5909 -24.7535 0.0755467
1 -0.207608 1.36666 -0.0925032
1 42.0325 -1.12003 -3.1937
1 -27.7985 29.5729 -0.283527
1 -5.9572 15.4167 -2.35256
1 46.3914 -24.1222 1.87172
1 -41.3704 -27.6178 0.281699
1 31.961 0.797569 -1.64954
1 -11.8192 17.9225 -1.68464
1 40.907 -6.25104 -1.50878
1 35.3316 -24.7375 2.19696
1 2.18471 -0.240682 0.0571055
1 -28.7518 12.6153 -2.76913
1 -29.4366 9.70915 -2.86947
1 -44.0387 -18.2864 -0.657423
1 -8.50044 -1.07352 -0.87223
1 -33.0306 -0.643209 -3.03352
1 -35.9544 11.6831 -3.45874
1 41.8794 22.3812 -2.42755
1 45.459 -15.1857 -0.494283
1 40.3317 21.9394 -2.4948
1 46.1351 2.32237 -4.14407
1 48.5211 -8.89799 -2.03524
1 -27.2086 -14.4615 -0.494705
1 28.064 0.190982 -0.901514
1 34.1997 14.9905 -2.73921
1 28.6921 3.8388 -1.41882
1 -29.4987 28.8905 -0.636743
1 -26.2951 18.3159 -1.5534
1 33.0407 29.6808 -0.835925
1 -25.1618 -45.9948 0.475618
1 -25.7473 28.6274 -0.304734
1 -19.4392 20.8449 -1.14018
1 30.0159 17.658 -2.04764
1 26.0193 9.74363 -1.73204
1 -45.8752 8.03613 -4.35067
1 48.8242 11.1319 -3.73582
1 -28.5713 38.3932 1.44284
1 42.1898 26.7351 -1.15767
1 -29.7223 -41.9713 0.370839
1 -36.7611 26.0894 -0.589113
1 -17.1745 16.0372 -1.45903
1 -32.6629 -47.1143 1.47333
1 -43.354 33.9452 0.133652
1 38.6634 20.8265 -2.80281
1 -27.0453 16.7725 -2.08622
1 37.8816 20.6194 -2.87619
1 -33.1083 13.8578 -3.07646
1 23.7642 40.1435 0.686893
1 -25.9937 14.4033 -2.67858
1 -46.4902 5.83936 -4.37381
1 -17.8329 27.8005 -0.848115
1 48.6929 -34.71 1.51053
1 42.3686 17.8703 -2.82454
1 26.7969 12.4944 -1.78982
1 -27.4429 2.93419 -2.51596
1 45.226 45.8561 1.83557
1 38.7786 17.4127 -3.1625
1 29.4691 39.3885 1.07318
1 -32.8872 30.9673 0.115528
1 -39.2816 18.4035 -2.498
1 1.76939 -33.5239 2.86191
1 47.41 -44.9812 1.79767
1 46.3152 17.2995 -2.92594
1 26.0531 39.7255 0.431564
1 -33.3954 38.052 1.93356
1 -36.5269 24.2945 -1.30151
1 -30.6289 7.90112 -3.27461
1 -45.2663 25.1105 -1.0075
1 -29.1837 -28.1509 0.555871
1 -40.1647 -31.6689 0.838901
1 -16.6374 29.2662 -0.850863
1 -19.9873 -28.2122 1.40452
1 -30.9847 15.7798 -2.88482
1 -43.7337 39.7688 0.937734
1 -32.2424 -34.1795 0.906148
1 32.0692 -22.9083 2.12364
1 25.3241 40.302 0.544949
1 26.3947 17.5578 -2.01328
1 31.1881 -49.1609 1.98562
1 48.4842 -40.4212 1.64321
1 27.7865 36.3713 0.00814804
1 -32.4316 13.3302 -3.05416
1 31.7788 -44.5168 2.23595
1 -48.0347 -30.644 1.50184
1 34.2912 -44.7233 2.65486
1 20.3953 -14.4185 2.74646
1 -41.463 34.8561 0.840725
1 40.4441 -32.4062 2.90655
1 32.0297 -13.6288 1.01316
1 -38.7054 27.288 -0.454172
1 38.2528 -22.1979 2.04247
1 -21.2613 -47.2105 -0.0344478
1 -22.8578 -43.494 0.544581
1 -31.1892 43.0007 1.66713
1 -15.3673 -30.7375 2.32223
1 -34.0779 -15.7644 -0.839996
1 -35.2391 -27.9774 0.498486
1 -21.2524 -29.8346 1.26771
1 42.2462 -34.4949 2.71952
1 44.7303 33.1385 -0.339085
1 -46.3194 -6.23567 -2.99815
1 -20.7209 -28.2316 1.18443
1 -41.4014 -31.1082 0.942463
1 42.9998 -43.5639 1.8381
1 -48.7772 -30.9323 1.71622
1 -19.5447 -46.8737 -0.144783
1 32.8691 9.78452 -2.31352
1 -23.7126 4.15718 -2.05891
1 -47.2457 -43.1503 1.52491
1 41.0228 -4.08656 -2.51091
1 -25.7622 -31.4994 1.46348
1 -39.7914 -32.3308 0.865945
1 -46.7981 -6.84166 -2.66461
1 30.5348 -8.90532 0.756417
1 -30.5342 9.10064 -3.14384
1 -41.3713 -21.3032 -0.713307
1 -47.7 -12.9659 -1.32156
1 25.4636 30.1305 -1.22152
1 -5.07454 40.2998 -1.39113
1 -30.6064 13.4629 -2.76146
1 -33.9632 -38.5008 0.393188
1 -44.2817 -36.825 1.16846
1 -45.7601 -7.00957 -3.04257
1 -47.0882 -5.61884 -3.19784
1 -15.2944 -13.7451 -0.23365
1 -8.72112 -47.1334 0.36458
1 -38.0477 39.7527 1.51209
1 -17.0065 -10.0237 -0.419244
1 42.0821 -2.64514 -2.99362
1 -48.13 28.2605 -0.86183
1 -48.5371 24.5202 -1.21833
1 -44.6233 1.97174 -3.80738
1 -33.9953 -10.2468 -1.62736
1 -43.7943 6.17106 -4.44703
1 -38.7855 -7.80486 -2.6595
1 -15.2769 -25.2783 1.31554
1 33.9147 -24.372 2.42807
1 -37.9642 -9.63151 -2.29519
1 -41.9641 21.7302 -1.53936
1 9.28175 -26.9364 2.64432
1 -24.358 9.93573 -2.4543
1 -48.9929 19.469 -2.84084
1 33.4935 -40.8995 3.16079
1 -34.4265 24.2702 -1.52497
1 44.7355 -2.49892 -3.41055
1 -33.3213 -48.5296 1.55388
1 14.3695 30.9304 -1.43144
1 -30.9409 12.6174 -2.73999
1 46.5012 -6.10231 -2.69091
1 -19.3907 -8.21614 -1.18694
1 -37.1574 -1.88513 -3.21774
1 -5.44777 12.4735 -1.86822
1 24.8099 -18.0514 2.72562
1 19.3934 11.2351 -1.94191
1 -48.6498 29.1055 -1.13883
1 47.9222 -14.3312 -0.894711
1 48.9929 39.0874 1.12298
1 38.1087 30.3932 -0.22035
1 -44.6641 29.6434 -0.440983
1 -28.3617 26.2819 -0.777306
1 9.11917 29.2108 -1.92746
1 -28.0306 34.4832 0.647619
1 22.2523 10.1663 -1.85315
1 42.7604 21.0693 -2.6662
1 35.5344 22.8814 -2.71809
1 41.0144 20.8614 -2.62947
1 -46.5918 14.4457 -3.57425
1 -42.9731 23.2131 -1.32009
1 47.3631 31.1458 -0.899532
1 -31.3704 32.1595 0.563096
1 -34.7712 -48.2052 1.5127
1 -29.3576 -13.6493 -0.863034
1 -35.1805 7.7181 -3.85151
1 -19.2405 45.056 -0.359323
1 -26.4812 -44.0522 0.638267
1 -45.5225 21.7982 -1.73331
1 29.6337 38.2046 0.937001
1 -10.1042 -40.8429 2.01478
1 -43.2109 -35.2353 1.12827
1 -20.6389 -18.2402 0.143426
1 8.87756 28.3005 -1.87646
1 -33.9022 46.3497 1.57166
1 -27.8979 41.3176 1.3326
1 19.2516 -38.6672 3.60894
1 -29.8635 40.2651 1.5976
1 -17.3837 47.9245 -0.716264
1 -40.6057 46.5137 1.67907
1 -10.989 31.0485 -1.40142
1 43.1007 -38.293 2.09569
1 -45.8663 41.2324 0.922439
1 -35.4144 44.4038 1.59173
1 -26.8678 -45.5606 0.616833
1 -1.38263 -45.7863 1.90379
1 -20.19 -45.5014 0.398776
1 -38.7327 -28.2531 0.680826
1 -28.4374 19.6766 -1.53605
1 -33.1634 -45.0054 1.07739
1 6.20885 14.0057 -1.73044
1 -27.2513 43.5414 0.835608
1 29.0535 26.9342 -1.31095
1 -48.0685 -19.3648 0.0106265
1 45.5026 -37.0542 1.84308
1 -45.1699 -48.1851 1.28433
1 34.8342 -19.627 1.93637
1 -35.8379 -30.119 0.652836
1 -25.3723 37.4677 0.667958
1 45.2182 30.4354 -0.919137
1 -43.7302 38.4076 0.95731
1 44.242 35.9922 0.45451
1 -31.142 34.5138 1.32768
1 23.0534 -23.2051 3.03277
1 -24.4159 48.3158 0.691386
1 37.0167 -31.4475 2.93547
1 34.0091 -45.9684 2.75383
1 -39.3291 -24.3527 -0.581034
1 21.8475 -12.2915 2.49985
1 -21.5352 -3.03026 -2.26495
1 -48.9319 -23.3999 1.08447
1 -25.9698 -45.7938 0.632844
1 -31.6568 -15.5966 -0.587046
1 7.485 -28.0094 2.56599
1 40.1273 -36.3277 3.13664
1 -28.0135 -23.3993 -0.0165862
1 3.40258 -31.4074 3.00399
1 48.0537 -25.0034 1.52841
1 47.5048 -3.71732 -3.11609
1 -34.8921 -8.38583 -1.87556
1 -43.583 -44.9288 1.28712
1 -36.0401 -5.36239 -2.87207