LAMMPS (17 Nov 2016)
Reading data file ...
  orthogonal box = (-75 -50 -1) to (75 50 1)
  1 by 1 by 1 MPI processor grid
  reading atoms ...
  126 atoms
  scanning bonds ...
  2 = max bonds/atom
  scanning angles ...
  1 = max angles/atom
  reading bonds ...
  120 bonds
  reading angles ...
  120 angles
Finding 1-2 1-3 1-4 neighbors ...
 Special bond factors lj:   0          0          0         
 Special bond factors coul: 0          0          0         
  2 = max # of 1-2 neighbors
  2 = max # of 1-3 neighbors
  4 = max # of 1-4 neighbors
  6 = max # of special neighbors
118 atoms in group move
2 atoms in group anchor
6 atoms in group protein
1 rigid bodies with 6 atoms
Neighbor list info ...
  1 neighbor list requests
  update every 1 steps, delay 1 steps, check yes
  max neighbors/atom: 2000, page size: 100000
  master list distance cutoff = 5.3
  ghost atom cutoff = 5.3
  binsize = 2.65, bins = 57 38 1
Setting up Verlet run ...
  Unit style    : lj
  Current step  : 0
  Time step     : 0.005
Memory usage per processor = 8.25669 Mbytes
Step Temp E_pair E_mol TotEng Press Volume 
       0   0.98360996            0      3.48064    4.4213146 -0.00079821287        15000 
     300   0.92642006            0    3.4389567    4.3249378 0.0014498578    14727.137 
     600   0.92321583            0    3.1672196    4.0501363 -0.003591501    15265.425 
     900   0.88102525            0    3.3249109    4.1674787 -0.0057529909    15498.201 
    1200    1.1464486            0    3.3086435    4.4050487 -0.00027824959    15225.775 
    1500   0.91989911            0    3.4568956    4.3366404 0.0023262012    14915.298 
    1800   0.90690025            0    3.3598284    4.2271417 0.0080347947    14603.127 
    2100   0.90650638            0    3.2202858    4.0872224 -0.00033941011     15243.51 
    2400   0.89417423            0    3.2688806    4.1240234 -0.0015910593    15350.853 
    2700     1.078132            0    3.3165716    4.3476423 -0.00061477382    15381.537 
    3000    0.9572639            0    3.3390422    4.2545208 -0.0024808604      15546.4 
    3300    1.0187003            0     3.398392    4.3726252 -0.0070014842    16115.879 
    3600   0.95121204            0    3.4373389    4.3470298 -0.0024235663    16092.477 
    3900    1.1201536            0    3.4809939    4.5522519 -0.00089486978    15724.856 
    4200    1.1073601            0    3.4210023    4.4800253 0.00056284274    15546.308 
    4500    1.0075583            0    3.4684611    4.4320387 7.2047085e-05    15622.481 
    4800   0.86840279            0    3.2817272    4.1122236 -0.007995009    16016.406 
    5100    1.0443348            0    3.3079948    4.3067436 -0.0022407309    15570.395 
    5400    1.0646411            0    3.6256342    4.6438029 -0.0034284584    15637.612 
    5700   0.83893107            0    3.3669375    4.1692486 -0.0048313486    15812.117 
    6000   0.97889121            0    3.1955152    4.1316771 0.0019351471     15393.09 
    6300   0.91425564            0    3.3158793     4.190227 0.0060461483    14926.998 
    6600   0.96679808            0    3.3031485     4.227745 0.0022643425    15293.508 
    6900   0.88247419            0    3.3064117    4.1503652 -0.0026314013    15537.065 
    7200   0.89525269            0    3.3954407    4.2516149 -0.0011997335    15321.586 
    7500    1.0349071            0    3.2598237    4.2495563 0.0012967456    15428.839 
    7800    0.9404527            0    3.4137951    4.3131963 0.00013323262    15517.904 
    8100   0.89779032            0    3.4251218    4.2837229 -0.0031753179    15750.698 
    8400    1.0268607            0    3.5026607    4.4846981 -0.0048827921    15823.219 
    8700    1.0425446            0     3.299216    4.2962526 0.00094104149    15295.793 
    9000   0.94824697            0    3.4001678    4.3070231 0.0038879329    14897.338 
    9300    1.0526727            0    3.3699829    4.3767056 0.0031738244    15177.971 
    9600   0.98109009            0    3.2401999    4.1784647 -0.0067176559    15846.688 
    9900   0.98901959            0    3.2447177    4.1905658 -0.0043642692    15727.426 
   10200   0.99273599            0    3.3172666    4.2666689 0.0050713381    15022.768 
   10500   0.92089324            0    3.2972421    4.1779376 0.0060042252    15031.481 
   10800   0.95702891            0    3.4213135    4.3365674 -0.00038559681    15469.871 
   11100     1.018307            0    3.2707501    4.2446073 0.0018040713    15576.939 
   11400    1.0813768            0    3.5818398    4.6160137 -0.0027047327    15866.934 
   11700   0.94983399            0    3.5149782    4.4233512 -0.0059263348    16133.317 
   12000    1.0526428            0    3.4493484    4.4560425 0.0020347443    15518.439 
   12300   0.95470327            0    3.4597406    4.3727703 0.00081275821    15620.038 
   12600    1.0267398            0     3.566507    4.5484288 -0.0052879342    15909.128 
   12900   0.99884551            0    3.4900443    4.4452894 -0.0011827991     15771.75 
   13200   0.89014561            0    3.4197131    4.2710031 0.0052775369    15505.712 
   13500   0.95392594            0     3.341775    4.2540613 0.0063388536    15482.717 
   13800   0.98211051            0    3.4662906    4.4055312 -0.00081789491    15783.703 
   14100    1.0204129            0    3.3026721    4.2785431 -0.0031103225    15993.613 
   14400   0.93930916            0    3.4300385     4.328346 -0.002854098    15929.166 
   14700   0.98057348            0     3.410913    4.3486836  0.003665465    15418.146 
   15000    1.0925699            0    3.4148255    4.4597039 0.0037994508    15429.579 
   15300   0.95678101            0    3.3831335    4.2981502 -0.00082528173    15597.441 
   15600   0.96677862            0    3.5028645    4.4274425 -0.0069542394    15812.848 
   15900   0.92306591            0    3.4968473    4.3796207 -0.0061669966    15935.686 
   16200    1.1618246            0    3.4164637    4.5275737 -0.00021385034    15958.502 
   16500     1.193272            0    3.4277784     4.568963 0.0012734738     15719.66 
   16800   0.88490963            0    3.4700519    4.3163345 -0.00039574893    15696.359 
   17100    0.9504292            0    3.5165742    4.4255164  0.007099519    15269.788 
   17400    1.1778998            0    3.4420834     4.568567 0.0046806432    15434.223 
   17700   0.94746505            0    3.4907936    4.3969011 -0.0035258083        15797 
   18000   0.92909318            0    3.4645484    4.3530859 -0.008568098    16313.831 
   18300    1.0629043            0    3.5311337    4.5476414 0.0014277696    15531.393 
   18600    1.0586661            0     3.532079    4.5445334 0.0015767169    15692.671 
   18900   0.88647231            0    3.4728842    4.3206613 0.0015908906     15737.73 
   19200   0.84873818            0    3.6648845    4.4765746 -0.00061583045    15900.834 
   19500   0.99009956            0    3.5637247    4.5106057 -0.004394028    16391.432 
   19800      1.04461            0    3.6618663    4.6608782 -0.0041109893    16205.396 
   20100   0.83070943            0    3.6903605    4.4848088 0.0056918752    15230.134 
   20400    0.9273426            0    3.5385034    4.4253667 0.0029106519    15791.006 
   20700    0.9481318            0    3.5247753    4.4315204 -0.00086619312    16001.691 
   21000   0.79442309            0    3.5735008    4.3332467 -0.0069271785    16322.949 
   21300   0.96191571            0    3.4797435    4.3996708 0.0027746172    15669.574 
   21600   0.96059628            0    3.5508055     4.469471 0.0015083581    15650.598 
   21900   0.99406901            0    3.6463811    4.5970582 0.0029755535    15456.734 
   22200    1.0650332            0    3.4894654     4.508009 -0.0020646737    16048.432 
   22500   0.94952265            0    3.5991728     4.507248 -0.0041743457    16071.816 
   22800    1.1350417            0    3.5750601    4.6605563 -0.0024206295    15883.088 
   23100   0.94943107            0    3.6831125    4.5911001 0.0004884602    15810.911 
   23400    1.0536896            0    3.6863977     4.694093 -0.0012227916    15739.036 
   23700    1.0142175            0     3.754245    4.7241911 -0.0018929738    15741.126 
   24000    1.0314873            0    3.5793199     4.565782 -0.0071393586     16221.58 
   24300   0.87257961            0    3.5711378    4.4056287 -0.0016714455    15629.743 
   24600   0.98849497            0    3.6919025    4.6372488 -0.0010684602    15486.925 
   24900    1.0507956            0    3.5025033    4.5074308 0.00094206192    15560.751 
   25200   0.94732725            0    3.4584925    4.3644682 -0.00070075849    15649.045 
   25500    1.0715904            0     3.505065    4.5298796 0.0083306342    15041.809 
   25800    1.1003221            0    3.5369297    4.5892218 0.0050192049      15395.3 
   26100   0.95915989            0    3.6206698    4.5379616 0.0027940091    15384.235 
   26400   0.96851336            0    3.5615405    4.4877775 0.0010997357    15615.655 
   26700     1.074498            0    3.5541269    4.5817222 -0.00066526799    15556.875 
   27000   0.97472493            0    3.4487072    4.3808846 -0.0068632563    15801.696 
   27300   0.98473923            0    3.6117486    4.5535032 0.0057653705     14789.07 
   27600    1.0512279            0    3.6046706    4.6100116 -0.00027985964    15075.375 
   27900     1.055291            0    3.5301958    4.5394225 0.0016543542    15013.081 
   28200    1.0543194            0    3.4944527    4.5027502 0.0031860033    14850.691 
   28500    1.0418286            0    3.5684634    4.5648154 0.0033831258    14730.071 
   28800   0.83542492            0    3.5587718    4.3577298 -0.0069232586    15169.052 
   29100   0.94270361            0    3.6822007    4.5837545 -0.0036754179    14799.652 
   29400   0.85731507            0    3.5886373    4.4085299 -0.00026268577    14582.079 
   29700     0.906129            0    3.6011705    4.4677463 0.0013558853    14505.843 
   30000   0.89360304            0    3.5263403    4.3809369 0.0067096747    13981.443 
   30300    1.0280702            0    3.5509436    4.5341377 0.00024289019    14356.453 
   30600   0.91759254            0    3.6678073    4.5453462 -0.0052820522    14725.954 
   30900   0.94943321 -0.0060579131    3.4441344    4.3460662 -0.0026428031     14694.81 
   31200    1.0272786 -0.072614253    3.5612364    4.4710592 -0.0006299981     14481.94 
   31500   0.85804603  -0.07477599    3.6381692    4.3839849 -0.0057479386    15120.937 
   31800   0.95847159 -0.069120612     3.527241    4.3747539 -0.0011392398    14570.515 
   32100     1.133804  -0.07177759    3.5107201     4.523255 -0.0019540071    14758.625 
   32400   0.95587549 -0.044797342    3.5243089    4.3936623 -0.0080229764    15065.475 
   32700   0.87328913  -0.07511552    3.5667786    4.3268324 -0.0066305868    14839.998 
   33000    1.0023024 -0.055937155    3.6229059    4.5255199 0.0054633107    15038.461 
   33300    1.0472976 -0.078619718     3.488354    4.4113166  0.004526079    14349.422 
   33600   0.91520088 -0.077177243    3.3796236     4.177698 0.00047765738    14564.285 
   33900   0.82443517 -0.071135585    3.3547547    4.0720671 -0.0039311286    14734.165 
   34200    1.0250184 -0.058412842    3.4588643     4.380727 -0.0055147101    15000.668 
   34500    1.1201381  -0.05513873    3.3613762    4.3774807 -0.0045408787    14811.176 
   34800    1.0409302 -0.066766642    3.5945976    4.5233237 0.0022017094    13916.784 
   35100    1.0074433 -0.053320498    3.3269934    4.2371405 -0.0064608496    14899.951 
   35400    1.0875749 -0.064298163    3.4843214    4.4601246 -0.00024328618    14474.153 
   35700    1.1362061 -0.064834652     3.479748    4.5015231 0.0091039527    14745.461 
   36000   0.97805785 -0.060305137    3.4184962    4.2935559 -0.0020544918    14585.552 
   36300   0.90443416 -0.063313895    3.4949957    4.2966367 -0.0044698175    15115.948 
   36600    0.9766548 -0.059170863    3.5972663    4.4721184 0.0033345184    14310.548 
   36900   0.83404349 -0.058541787    3.5077564    4.2468514 0.0065585099    13909.791 
   37200   0.84140628 -0.050504821    3.4255193    4.1796927 0.0095675226    13760.103 
   37500   0.98574297 -0.073084644    3.4124884    4.2821183 -0.0093290351    14822.066 
   37800    1.0164332 -0.027177325    3.3705512     4.315439 -0.0049212229    14783.803 
   38100    1.0471782 -0.056006205    3.3021079    4.2475697 0.0020233313    14426.976 
   38400    1.0152917 -0.079094486    3.3684297    4.2603087 -0.0085732354    14916.794 
   38700    1.0059754 -0.072585916    3.2712604    4.1607382 -0.00071314729    14290.903 
   39000    1.0087175 -0.058126348    3.3277296    4.2342895 -0.0027606552    14478.637 
   39300   0.98921286 -0.067782834    3.4086738    4.2869239 -0.0017833834    14267.316 
   39600    1.1151082 -0.031136972    3.2903177    4.3256136 -0.0031064526    14844.972 
   39900    1.0369626 -0.056127516    3.2227256    4.1582965 0.0028715962    14379.922 
   40200    1.0565265 -0.049940114    3.3578908     4.318359 -0.0022615621    14565.217 
   40500    1.0391925 -0.045601019    3.3842462    4.3324761 -0.0038026731    14864.452 
   40800    0.9986261 -0.049367604    3.5070734    4.4127411 -0.0024756325     14959.38 
   41100    1.0241063 -0.056066528    3.2905469    4.2138836 0.0088851082    14362.422 
   41400    1.1441913 -0.057499663    3.2091781    4.2459249 -0.00024366878    14525.184 
   41700   0.89305791 -0.0020747833    3.5778792    4.4298796 0.0044630216    14173.239 
   42000    1.1348035            0    3.3989724    4.4842408 0.00099915648    14880.018 
   42300     0.947147            0    3.3976227     4.303426  0.003245744    14929.277 
   42600    0.9263572            0    3.3391417    4.2250627 -0.00018858824    15216.096 
   42900    1.0238071            0    3.4016778    4.3807949 -0.0026251788     15305.94 
   43200   0.85086153 -0.043299984    3.3567123     4.127133 -0.003630432    15124.555 
   43500    1.1211152 -0.056808323    3.4642131    4.4795825 0.0010047533    14989.467 
   43800     1.099942 -0.069913887    3.3103404    4.2923552 0.00023908339    15484.873 
   44100    1.1393344 -0.074520306    3.3332797    4.3483609  0.015107121    15050.807 
   44400   0.84698524 -0.040429598    3.5049212    4.2745053 -0.0011598587    15037.143 
   44700   0.94911065 -0.026431888    3.2892417     4.170491 -0.0037087719    15558.895 
   45000   0.81879681 -0.056869295    3.4529235    4.1791099 -0.010415959    15858.775 
   45300    1.0516303 -0.077074777    3.4770651    4.4057161 -1.6752776e-06    15434.324 
   45600    1.0243565 -0.068944032     3.443238    4.3539365 -0.0023384238    15408.922 
   45900    1.1584672 -0.083372295    3.4151425    4.4396694 -0.0075174552    15867.944 
   46200   0.94504837 -0.072826698     3.499238    4.3302076 0.0017974037    14958.038 
   46500   0.90946085  -0.05649897    3.3748504    4.1881136 0.0096840146    15308.553 
   46800   0.92874997 -0.056569302    3.3006988    4.1323388 -0.0019640632    15219.694 
   47100   0.95768598 -0.058048562    3.3585443    4.2163779 0.0036427339    14417.313 
   47400   0.88961915 -0.059116768    3.4125295    4.2041993 -0.0067683439    15164.207 
   47700   0.94474244 -0.075920062    3.5017893    4.3293729 -0.0041825324     14912.01 
   48000   0.95907587 -0.093836283    3.3999039    4.2232791 0.0068151692    14715.924 
   48300    1.0153182 -0.085380222    3.4864196     4.372038 0.0016104574    15147.477 
   48600    1.1537646 -0.094649862     3.453933     4.462685 -0.00027974122    14662.148 
   48900   0.93781392  -0.11260634    3.5066646    4.2909358 -0.0083758891    15065.086 
   49200   0.95918689  -0.11154284    3.5388293    4.3446041 0.0013510974    14165.359 
   49500    1.1118815  -0.11144974    3.3912206    4.3431179 0.0087639446    14226.614 
   49800   0.89557423  -0.10695636    3.5401734    4.2896988 -0.0063672472    14784.379 
   50100    1.0955442 -0.097938515    3.5332701    4.4830544   2.3596e-06    14438.992 
   50400    1.0532704  -0.10802441    3.5458146    4.4450845 0.0014688696    14693.782 
   50700   0.96396263 -0.093081605    3.6832265    4.5120298 0.0012083759     14203.43 
   51000     0.885976 -0.084427562    3.5216915    4.2845664 -0.0079659768    14943.312 
   51300    0.9410052  -0.10283037    3.4301551    4.2272543 -0.0031294261    14720.953 
   51600    0.8326234  -0.10915131    3.7004026      4.38753  -0.01018418    15137.571 
   51900    0.7147353  -0.12151688    3.6763318    4.2383514 -0.0049630568    14576.993 
   52200   0.99076889   -0.1122452    3.6687749    4.5040507 -0.0013157683    14413.182 
   52500    1.1143535  -0.10686742    3.7313089    4.6901526 0.0029612627    14503.721 
   52800    1.0552084  -0.08295268    3.7130737    4.6392687 -0.0064472839    14912.276 
   53100   0.91786176 -0.099366114    3.8252589    4.6036892 -0.0012938567    14592.344 
   53400   0.93658779 -0.070902716    3.6941423    4.5189446 0.0089946779    15275.993 
   53700    1.0010472  -0.11771131    3.7136962    4.5533356 4.0007261e-05    14771.136 
   54000    0.9729091  -0.10956412    3.6405266    4.4614034 -0.0055857757     15152.28 
   54300   0.94577951   -0.1090213    3.6833987    4.4788728  0.004500906    14965.776 
   54600   0.97716201  -0.06532301    3.5923745    4.4615596 -0.012010964    15926.348 
   54900   0.96311323   -0.0847835    3.6072785    4.4435676 -0.0033807747    15295.119 
   55200   0.84920932 -0.095752069    3.7155541    4.4319427  0.011341665    15195.889 
   55500    1.0974689 -0.097694814    3.5442518    4.4961205 -0.0030730558    15380.774 
   55800    1.0435564  -0.10753155    3.5756101    4.4660829 0.0011450848    15034.552 
   56100   0.94794454 -0.083717274    3.7516601    4.5745088 -0.0027779798    15307.382 
   56400   0.97947372  -0.11021539    3.7576782    4.5841818 -0.0034892949    15413.639 
   56700   0.91476821 -0.086353259     3.810998    4.5994826 -0.006506466    15783.685 
   57000    1.0475808  -0.10181397    3.7690118    4.6690509 0.0002020335      15304.5 
   57300   0.99175864   -0.1015858    3.7867282      4.63361  0.011185952    15497.531 
   57600    1.0444241 -0.079387979    3.9287078    4.8481541 -0.0063685452    15753.323 
   57900    1.0564006  -0.10814258    4.0063209    4.9084663 -0.0010151387    15659.259 
   58200    0.9920744   -0.1162445    3.8402882    4.6728132 0.0013821647     15672.07 
   58500    1.1260174   -0.1173129    3.7527665    4.7123195 0.0035942019    15202.218 
   58800    1.0018405   -0.1185104    3.9049965    4.7445955 -0.0029879532    15419.038 
   59100    1.0883958 -0.097303683    3.8786507    4.8222334 -0.0039189604    15490.324 
   59400    1.1246142 -0.095906945    3.7798442    4.7594611 -0.0051698897    15620.721 
   59700   0.98383588  -0.10661568    3.7290304    4.5633054 -0.0046421113    15542.922 
   60000   0.95882073  -0.10147836    3.7919227    4.6074118 -0.0045108606    15390.094 
   60300   0.93417973  -0.10751293    3.8686266    4.6545157 -0.0047134896    15650.104 
   60600    1.0141321  -0.10136314    3.8169771    4.6854783 0.00012313089    15274.486 
   60900    1.0616738 -0.099296423    3.8392786    4.7553131 -0.0070218195    15564.323 
   61200    1.0028817  -0.09746801    3.8356357    4.6972728 0.0036054659    15306.955 
   61500   0.92869358  -0.10164786    3.9001636    4.6866711 -0.004122351    15078.474 
   61800    1.0651716 -0.097836862    3.9850332    4.9058724 -0.0010019089    15108.538 
   62100    1.0110398  -0.10844336    3.8474575    4.7059212 0.0044204379    15209.845 
   62400   0.97386429  -0.10535328    3.9736646    4.7996657 0.00010589362    15627.443 
   62700    1.0144282  -0.11190558    3.9112597    4.7695018 -0.0010107756     15415.68 
   63000    1.0384572   -0.1109787    3.9057043    4.7878533 0.0027289391    15351.231 
   63300     1.115362 -0.096368554    4.0966581    5.0669651 -0.0077639624    15828.786 
   63600    1.1749068 -0.089829596    3.8265629    4.8603545 -0.0056677813    15796.218 
   63900    1.0569679  -0.11700122    3.9657669    4.8595962  0.002254693     15563.77 
   64200   0.97568495 -0.068659454    3.9345158    4.7989519  0.011538442    15670.011 
   64500    0.9589657  -0.11444354     3.899285    4.7019475 0.0071591334    15679.694 
   64800    1.0845998  -0.10215803    3.9551248    4.8902229 0.0044372375    15903.758 
   65100   0.93740569 -0.088030254    4.2459284    5.0543854  0.014475849    15907.957 
   65400    1.0437195 -0.088167487    4.1793151     5.089308 -0.0027610439    16260.488 
   65700    1.1739568 -0.080537049    4.1839232    5.2260987 -0.0047268882    15703.683 
   66000    1.2097286  -0.11286583    4.0752707    5.1193278  0.011424921    15515.752 
   66300    1.0531889 -0.092971578    4.0065035    4.9207483 0.0041498937    15846.924 
   66600    0.9292831 -0.083809621    4.0499604    4.8548699 -0.0058278906    15903.316 
   66900   0.86379432   -0.1098592    4.0424793    4.7587092 -0.0036076721    16015.322 
   67200   0.92155176  -0.12294435    4.3030612    5.0614421 -0.0079190892    15758.759 
   67500    1.1109241  -0.10968154    4.1401857    5.0929355 0.0012623806    15260.726 
   67800    1.1381926 -0.072915342    4.2019968     5.217591 0.0026819554    15620.568 
   68100   0.94286367  -0.11659058    4.2285267     5.013643 0.00054414237    15350.588 
   68400    1.0847022 -0.092934103    4.2311885    5.1756085 0.0061174977    15569.171 
   68700    1.0812946  -0.11181818    4.4128462    5.3351233 -0.0045017526    16310.702 
   69000    1.0491286 -0.085439911    4.2025194    5.1204128 0.00059440267    15294.046 
   69300    1.1024895 -0.093094573     4.234037    5.1953073 -0.0053107068    15537.586 
   69600    1.0487101  -0.11849105    4.3465847    5.2310267 0.0071973685    14868.654 
   69900   0.93108774 -0.076154408    4.3051604     5.119451  0.018687169    15057.525 
   70200    1.0352223 -0.043477447    4.3842217    5.3307783 -0.0082891275     15445.65 
   70500    1.1023853 -0.060309987    4.2202886     5.214244  0.010056912    14813.947 
   70800   0.88744981 -0.066594861    4.3946349     5.176752 -0.0032977239    14861.052 
   71100   0.84060681 -0.053482788    4.4847506    5.2351815 0.0025560987    14769.138 
   71400   0.98700588 -0.060144394    4.4752031     5.358981 -0.0018352941    15107.609 
   71700    0.9958369 -0.060048071    4.5037997    5.3961195 -0.0070769542    15422.386 
   72000    1.1446769 -0.029382637    4.4774128     5.542741 0.0019490641    14995.645 
   72300   0.93637146 -0.076068174    4.3954543    5.2148842 0.0015512427    15098.322 
   72600    1.1382603 -0.071059286    4.3443958    5.3619109 0.0017131368    15266.429 
   72900   0.88317165  -0.05184776    4.3309011    5.1236739 -0.00010210793    14710.815 
   73200   0.99156529  -0.07385921    4.4130824    5.2875059 -0.0057594414    14844.623 
   73500    1.1587712 -0.058193802    4.4707254    5.5207215  0.003189807    14899.905 
   73800   0.97499372 -0.055068037    4.5095612    5.3869277 0.0076311927    13721.967 
   74100   0.92963765 -0.057440768       4.4838    5.3154175 -0.0094047455    14590.038 
   74400    1.0325442 -0.064056686    4.3902887    5.3137048 -0.0015271321    14302.122 
   74700   0.98552686 -0.054367513    4.5042522    5.3923926 -0.0098556439    14816.106 
   75000   0.99411909  -0.04536649    4.6786098    5.5839683 -0.0075242265    14573.076 
   75300   0.98996947 -0.083151224    4.4833396    5.3469449 0.0042354012    14412.702 
   75600    0.9628214   -0.1180976    4.6080637    5.4107595 0.0059834395    15379.074 
   75900   0.84638625  -0.11326346    4.6146582    5.3108356 -0.0073838164    14994.867 
   76200    1.1466696   -0.1288397    4.5302553    5.4980321 0.0034282143    14925.158 
   76500   0.93691094 -0.072487436    4.6349642    5.4584908 -0.006871137    15162.924 
   76800    1.2358373 -0.094401827     4.664415    5.7519051 -0.0084507678    15586.673 
   77100    1.0642736  -0.12684332    4.5405202     5.431494 0.0053261936    14769.178 
   77400   0.93448593  -0.12009513    4.4939975    5.2675973 -0.0025271127    15019.652 
   77700   0.94956744  -0.12135071    4.5132516    5.3000189 -0.0012105937        15105 
   78000    0.9048764 -0.095826712    4.5304096    5.2999607 -0.0043240128    15045.626 
   78300    1.1104614  -0.10022776    4.4024188    5.3641799 -0.00086045743    15262.203 
   78600     1.030601 -0.079867816    4.5385184     5.444265 -0.0050791624      15314.6 
   78900    1.0705252   -0.1020688    4.6130333    5.5347604 -0.001388026     15044.64 
   79200      1.05235 -0.089487242    4.5722728    5.4891997  -0.00253825    14963.383 
   79500    1.0735551 -0.097636857     4.689759    5.6188158  -0.01198494    15672.079 
   79800    1.0224146  -0.11365602    4.6215069    5.4856362 -0.0054254915    15444.417 
   80100    1.0423898 -0.088589627    4.6106417    5.5189407 0.0061983765    14867.429 
   80400    1.1015856  -0.07531923    4.6928428    5.6710241 -0.0029166632    15091.718 
   80700   0.90150011  -0.10925059    4.6522733    5.4051716 -0.0033186099    14680.547 
   81000   0.82392946  -0.11402009    4.7503195    5.4242637 -0.00032214818    14425.235 
   81300   0.97971689  -0.10628018    4.5539794    5.3846507 -0.0090897713    15082.751 
   81600    1.1703261  -0.11114688    4.6946686    5.7027621 -0.010149308    15402.994 
   81900    1.0204377  -0.12548719    4.8725259    5.7229335 0.00084085873    14634.461 
   82200    1.0696647  -0.11711967    4.7529271    5.6587804 -0.0030544353    15246.856 
   82500    1.1061777  -0.11179614    4.7960973    5.7421933 -0.0036574483    15141.874 
   82800    1.0012897 -0.095730654    4.6650876    5.5269395 -0.0083195054    14977.192 
   83100   0.92668894 -0.090017083    4.6135255    5.4097466 -0.0029272058    14678.727 
   83400   0.95814714  -0.11174286    4.6233731    5.4279535  0.012934639    14416.854 
   83700   0.93862869  -0.10750359    4.4375723    5.2277255 0.0039631351    15115.023 
   84000    0.9696372  -0.10933927    4.8761705     5.694143 -0.0021353424    15268.233 
   84300    1.0817385  -0.10474848    4.7058376    5.6356088 0.0079146634    14731.767 
   84600   0.90765997  -0.12225873    4.6903349    5.4361161 -0.0033224307    14772.326 
   84900   0.96141338 -0.099420803    4.7059905    5.5260166 -0.0075882022    14946.991 
   85200   0.95914568  -0.11590193    4.7446643    5.5460406 7.6723121e-05    15148.461 
   85500    1.0350458 -0.085536864    4.8196076     5.723936 -0.0089422943    15325.854 
   85800    1.1047798  -0.11928955    4.8539308    5.7911966 0.0069522773    14783.963 
   86100   0.98557435 -0.095217746    4.8551588    5.7024943 -0.00049730836    14942.959 
   86400    1.1009709 -0.095510929    4.8069337    5.7643354 0.00059761725    14610.978 
   86700    1.0184725    -0.107109     4.755715    5.6226214 -0.0083283725    15073.449 
   87000   0.79149652  -0.11828257    4.7821713    5.4208358 -0.00058191312    14723.148 
   87300   0.92213612  -0.10389492    4.6913911    5.4693803    0.0140971    14538.702 
   87600   0.86853772  -0.07617554    4.8590359    5.6134857 0.0048942564    14545.566 
   87900   0.97979133 -0.083323976    4.8607685    5.7144672 -0.011791498    14797.607 
   88200    0.8911611 -0.086352026    4.9643844    5.7302936 -0.0096018028    14837.734 
   88500    1.0329211  -0.10935477    4.7948496    5.6733281 0.0087120353    14327.498 
   88800   0.90881351  -0.11137871    5.0616699    5.8194343 -0.0077505348    14404.335 
   89100    1.0333581  -0.07945983    4.9968091    5.9056005 -0.0064854844    14651.531 
   89400      1.08748 -0.092919742    4.9474683    5.8945592 0.0025648391    14853.865 
   89700   0.92827481  -0.11588082    4.8491622    5.6210363 -0.0027564189    14731.552 
   90000   0.86623836   -0.1034438    4.8569932    5.5819758 0.0052598369    14505.635 
   90300    0.8643942 -0.099231595    4.9136315    5.6410626 0.00040279599    15098.027 
   90600    1.0597122 -0.086371275    4.9551017    5.8821854 -0.0015947565    15354.343 
   90900   0.95566344  -0.10865754    4.8982875    5.7035779 -0.005924197    14950.863 
   91200    1.0833809  -0.10446462    4.9951895    5.9268153 -0.0038669065    14884.667 
   91500    1.0130173  -0.11098046    4.8059397    5.6637575 0.00061522454     14633.14 
   91800   0.89297029 -0.095889111    4.8221192    5.5802215 -0.0013938479    14959.041 
   92100   0.89158934 -0.072918979    4.9067549    5.6865067 -0.0058112259    15009.529 
   92400   0.87628749 -0.078635407    4.9228502    5.6822516 -0.0088983087    14908.445 
   92700    1.0385664  -0.10023032    4.9998208    5.8928226 0.00075823328     14263.53 
   93000    0.9036139 -0.086995072    5.0225798    5.7997551 -0.010361619    14668.377 
   93300    1.0366481 -0.091246592    4.8657001    5.7658511 -0.0025446834    14557.959 
   93600    1.1052623 -0.099925773    5.0738718    6.0309628 0.0012675157     13831.08 
   93900    1.0694304  -0.10186817     5.149387    6.0702677 0.0032275854    13963.156 
   94200   0.96077495 -0.092281646    5.0831082    5.9096629 0.0030085438    14349.399 
   94500   0.97182499 -0.091567667    5.0189551    5.8567915  -0.01219638    14696.568 
   94800    1.0260124  -0.12048647    4.8611348    5.7218745 0.00011717832    14252.375 
   95100   0.93973295  -0.09889936    5.0358984    5.8357119  0.009979264    14477.841 
   95400   0.90693099  -0.10053445    4.9477015    5.7145097 0.0051003362    14405.814 
   95700   0.98119708  -0.10551827    4.8733004    5.7061492 -0.0070111083    14888.201 
   96000   0.92927723   -0.1131728    4.9468879    5.7224287 -0.00031444494    14581.699 
   96300   0.93856519 -0.091247301    5.0025891    5.8089379 -0.0013348832    14369.993 
   96600   0.98885701  -0.10888175    4.9590323    5.7958431 -0.003942156     14992.81 
   96900   0.96776226  -0.11045986    5.0830947    5.8981536 -0.007557168    14707.484 
   97200    1.0192946 -0.079046029    4.9902595    5.8860151 0.00083198686    14210.982 
   97500    1.0316481  -0.10444892    5.0042702    5.8864371 -0.0025015224    13889.501 
   97800    1.0325787 -0.090329653     5.083882    5.9810581 0.0055968352    13817.835 
   98100   0.91873652 -0.095652495    5.0901262    5.8731066 -0.0034345278    14089.371 
   98400   0.92124675 -0.079549871    5.0780307    5.8795144 -0.0088339703     15095.71 
   98700    1.0493148 -0.071959441    5.1070741     6.038626 -0.0082414056    15240.952 
   99000   0.98684005 -0.076236836     5.074499    5.9420259 -0.0012164119    14823.174 
   99300   0.91125319  -0.11616187    5.0390819    5.7943963 0.0048398418    14414.717 
   99600    1.1473941   -0.1093292    5.1689636    6.1569438 0.0029563239     14629.52 
   99900    1.0463056  -0.10272044    5.0291178    5.9270309 -0.0033401885    14555.787 
  100000   0.96595678 -0.080503557    5.0432245     5.886513   0.01589687     14677.87 
Loop time of 4.16944 on 1 procs for 100000 steps with 126 atoms

Performance: 10361098.679 tau/day, 23984.025 timesteps/s
90.5% CPU use with 1 MPI tasks x no OpenMP threads

MPI task timing breakdown:
Section |  min time  |  avg time  |  max time  |%varavg| %total
---------------------------------------------------------------
Pair    | 0.10296    | 0.10296    | 0.10296    |   0.0 |  2.47
Bond    | 1.4814     | 1.4814     | 1.4814     |   0.0 | 35.53
Neigh   | 0.67078    | 0.67078    | 0.67078    |   0.0 | 16.09
Comm    | 0.069982   | 0.069982   | 0.069982   |   0.0 |  1.68
Output  | 0.49123    | 0.49123    | 0.49123    |   0.0 | 11.78
Modify  | 1.231      | 1.231      | 1.231      |   0.0 | 29.52
Other   |            | 0.1221     |            |       |  2.93

Nlocal:    126 ave 126 max 126 min
Histogram: 1 0 0 0 0 0 0 0 0 0
Nghost:    8 ave 8 max 8 min
Histogram: 1 0 0 0 0 0 0 0 0 0
Neighs:    7 ave 7 max 7 min
Histogram: 1 0 0 0 0 0 0 0 0 0

Total # of neighbors = 7
Ave neighs/atom = 0.0555556
Ave special neighs/atom = 5.71429
Neighbor list builds = 29887
Dangerous builds = 290
Total wall time: 0:00:04
