LAMMPS DATA SUPPLEMENT

2910 atoms

_ATOM TYPE COUNT PLACEHOLDER_

-25.0 25.0 xlo xhi
-25.1147367097 25.1147367097 ylo yhi
-100.0 100.0 zlo zhi

Masses

1 1
2 1
_LIGAND MASSES PLACEHOLDER_

Atoms

1 1 18.4305 1.70448 0.837971 1 1 0 0.077129 0.0826414 0.99359
2 1 -4.88351 16.8544 -0.624118 1 1 0 -0.256845 -0.072859 0.963702
3 1 -0.340565 -18.8921 0.0571545 1 1 0 0.0524748 -0.155801 0.986394
4 1 23.0551 -23.6591 -0.0734526 1 1 0 0.0162947 0.198994 0.979865
5 1 7.31725 8.02761 0.0653253 1 1 0 0.218874 -0.347653 0.911719
6 1 12.8577 -23.3637 0.428591 1 1 0 0.0310347 0.15865 0.986847
7 1 12.3813 24.4897 0.754762 1 1 0 -0.0999074 0.0180851 0.994832
8 1 0.202613 -6.17919 0.712066 1 1 0 -0.0293973 0.0314201 0.999074
9 1 2.42465 8.43907 0.524975 1 1 0 0.141722 -0.0414829 0.989037
10 1 10.0698 11.838 0.564581 1 1 0 -0.079293 -0.0370971 0.996161
11 1 -10.4279 22.6147 -1.49225 1 1 0 -0.303258 -0.244655 0.920966
12 1 -13.312 -4.34906 0.319949 1 1 0 0.247727 0.227546 0.941729
13 1 -12.9277 11.2976 -0.985295 1 1 0 0.201854 0.228258 0.952446
14 1 -23.7815 24.4753 -0.631889 1 1 0 0.150142 -0.00741966 0.988637
15 1 -8.04028 21.3526 -1.149 1 1 0 -0.0779701 0.0973368 0.992193
16 1 -17.3986 -10.5034 -0.367409 1 1 0 -0.0238731 0.0125303 0.999636
17 1 1.27803 -18.4127 0.0120579 1 1 0 0.0782083 -0.144533 0.986404
18 1 -4.91114 -24.5208 -0.635157 1 1 0 -0.043951 -0.149095 0.987846
19 1 -12.9031 9.53491 -0.543289 1 1 0 0.161512 0.210191 0.964227
20 1 -18.8087 -8.68576 0.181553 1 1 0 -0.0204205 -0.124554 0.992003
21 1 7.42758 -16.8112 0.313647 1 1 0 0.0279601 -0.122481 0.992077
22 1 -19.2375 14.2945 -0.873975 1 1 0 -0.15838 0.296528 0.9418
23 1 -12.2146 23.7129 -1.36849 1 1 0 -0.300432 -0.159202 0.940423
24 1 -24.4981 -0.0181016 0.555767 1 1 0 0.281243 0.0444665 0.958606
25 1 -21.7181 -20.2963 0.0541129 1 1 0 0.142566 -0.182558 0.972804
26 1 13.3541 23.5922 0.838031 1 1 0 0.00243218 0.0693701 0.997588
27 1 -2.93332 -16.4385 -0.336888 1 1 0 -0.161883 0.120133 0.97947
28 1 19.8012 12.1671 0.501546 1 1 0 0.138064 0.0926979 0.986076
29 1 11.5322 -8.52235 0.0126309 1 1 0 0.0395896 0.133562 0.990249
30 1 -0.679793 21.6915 0.133697 1 1 0 -0.269791 0.0559813 0.96129
31 1 14.1734 16.0592 0.485441 1 1 0 -0.0206692 -0.0621081 0.997855
32 1 -4.96368 -2.60603 0.108379 1 1 0 -0.217203 -0.0450194 0.975088
33 1 -18.4397 0.689047 0.50109 1 1 0 -0.127592 -0.0883991 0.987879
34 1 -4.33283 -6.22984 0.405349 1 1 0 -0.301819 -0.181454 0.935938
35 1 -7.30992 -20.2634 -0.467781 1 1 0 0.15543 -0.0815252 0.984477
36 1 7.85421 1.64434 -0.134888 1 1 0 0.0813991 0.21605 0.972983
37 1 -16.5251 20.8839 -1.34897 1 1 0 0.0571937 -0.17642 0.982652
38 1 -17.8802 -19.3666 -0.574157 1 1 0 0.0896328 -0.175296 0.980427
39 1 17.1136 20.484 0.104246 1 1 0 -0.193431 -0.228514 0.954131
40 1 -19.304 2.35391 0.534642 1 1 0 -0.225293 0.160396 0.960997
41 1 -19.5079 3.6452 0.388332 1 1 0 -0.0181487 0.00825874 0.999801
42 1 1.58368 12.2233 0.794502 1 1 0 -0.022769 0.091088 0.995583
43 1 1.46762 -3.46627 0.784468 1 1 0 0.00886969 0.0641663 0.9979
44 1 18.8887 17.6784 0.113797 1 1 0 0.00993873 -0.00464596 0.99994
45 1 13.459 -22.4541 0.526882 1 1 0 -0.131328 0.228322 0.964687
46 1 21.9713 8.25252 0.484331 1 1 0 0.248459 0.00523042 0.968628
47 1 -2.02865 1.2657 0.454317 1 1 0 -0.118354 -0.0672232 0.990693
48 1 14.4441 -17.3357 0.556538 1 1 0 -0.0351946 0.0673771 0.997107
49 1 -14.5953 15.1449 -1.39203 1 1 0 0.162158 0.0724983 0.984098
50 1 18.9507 -18.7848 0.0246288 1 1 0 0.153876 0.143214 0.977656
51 1 -15.4063 10.7188 -0.621339 1 1 0 0.217484 0.159681 0.962914
52 1 -2.99848 16.3016 -0.152988 1 1 0 -0.253578 -0.0654461 0.965098
53 1 -3.24741 -24.6218 -0.338793 1 1 0 -0.154375 -0.0640535 0.985934
54 1 -10.8171 -14.7661 -0.364257 1 1 0 0.232913 0.228688 0.945227
55 1 9.25099 15.9538 0.970183 1 1 0 0.0408096 -0.116737 0.992324
56 1 13.7651 -11.8889 -0.0279756 1 1 0 -0.00134877 0.0839909 0.996466
57 1 -15.6952 -10.4506 0.0871304 1 1 0 -0.115674 -0.189039 0.975133
58 1 -13.5381 -11.3539 -0.0567887 1 1 0 0.0145695 -0.114942 0.993265
59 1 -7.14177 3.99065 0.121296 1 1 0 -0.126374 0.0829046 0.988512
60 1 22.1869 -23.813 -0.179345 1 1 0 0.027519 0.11002 0.993548
61 1 7.3991 -3.40258 0.0828654 1 1 0 0.292187 0.0162829 0.956222
62 1 -14.5544 -7.80506 0.450897 1 1 0 0.202042 -0.118773 0.972148
63 1 12.7699 7.65943 -0.67342 1 1 0 0.0154366 -0.31358 0.949436
64 1 6.01169 -14.9379 0.21039 1 1 0 -0.0554141 -0.0977175 0.99367
65 1 11.9188 20.9372 0.934719 1 1 0 0.0393713 -0.0138535 0.999129
66 1 -12.7626 1.45674 -0.257963 1 1 0 0.0841363 -0.119853 0.98922
67 1 -22.5881 -12.6651 -0.48775 1 1 0 -0.0178703 -0.210813 0.977363
68 1 15.895 -19.6385 0.187248 1 1 0 0.0696599 0.049815 0.996326
69 1 -11.2435 6.01439 -0.189791 1 1 0 0.0926126 0.186098 0.978157
70 1 0.325766 15.9978 0.407744 1 1 0 -0.092284 0.238747 0.966687
71 1 0.896511 3.22217 0.641881 1 1 0 0.0462511 0.0877488 0.995068
72 1 -7.78622 12.4871 -0.854649 1 1 0 -0.259252 0.0992391 0.960698
73 1 -13.9093 -15.3829 -0.381925 1 1 0 -0.202667 -0.057713 0.977545
74 1 1.43523 23.6135 0.0975848 1 1 0 -0.0167493 0.0649274 0.997749
75 1 4.64393 -7.41227 0.58462 1 1 0 0.188073 -0.0917138 0.977864
76 1 7.58753 -0.960995 0.282064 1 1 0 0.131422 0.0331822 0.990771
77 1 -11.2065 19.1407 -1.31122 1 1 0 -0.0543705 -0.112493 0.992164
78 1 -7.17595 -21.2433 -0.780629 1 1 0 0.0321537 -0.062719 0.997513
79 1 -8.27261 -0.95973 0.0442625 1 1 0 0.23264 -0.146965 0.961395
80 1 10.2005 -21.6715 0.257988 1 1 0 0.190678 0.185099 0.964044
81 1 -9.71054 -3.21829 -0.0462556 1 1 0 0.370063 0.0601959 0.927054
82 1 -11.0808 20.6037 -1.37302 1 1 0 -0.223325 0.0540277 0.973246
83 1 -17.1788 -21.6018 -0.627337 1 1 0 0.263896 -0.189535 0.945746
84 1 21.4393 22.8147 -0.179382 1 1 0 -0.243013 -0.0181588 0.969853
85 1 -5.24032 -8.10812 0.0315843 1 1 0 -0.333589 0.119841 0.93507
86 1 -13.6858 14.8347 -1.49888 1 1 0 0.0133419 0.0573856 0.998263
87 1 -4.79072 19.5967 -0.64103 1 1 0 0.0747463 -0.218384 0.972996
88 1 -2.82222 -6.75878 0.545764 1 1 0 -0.00456234 -0.183246 0.983057
89 1 5.55807 18.9093 1.32762 1 1 0 -0.0599729 0.255895 0.964842
90 1 -19.8459 -12.6862 -0.370369 1 1 0 -0.202976 0.0386857 0.978419
91 1 -8.67046 13.222 -1.03172 1 1 0 -0.145581 0.0463072 0.988262
92 1 -12.4199 -13.7998 -0.463259 1 1 0 0.0526836 0.0564871 0.997012
93 1 -3.03156 -4.58307 0.865519 1 1 0 0.0429041 0.141255 0.989043
94 1 -14.6713 -5.00008 0.69442 1 1 0 0.296588 0.138417 0.944921
95 1 9.8933 7.03362 -0.386602 1 1 0 -0.0885065 -0.0778995 0.993025
96 1 19.2491 3.38926 0.615764 1 1 0 -0.162838 0.39973 0.902053
97 1 3.4116 -5.89142 0.653327 1 1 0 0.0151778 -0.0148528 0.999774
98 1 -21.3812 -10.7061 -0.443385 1 1 0 -0.0686374 0.000797516 0.997641
99 1 3.57752 7.28179 0.232812 1 1 0 0.036381 -0.0219228 0.999097
100 1 -11.3516 13.5665 -1.18083 1 1 0 -0.125404 0.0253991 0.991781
101 1 9.81052 -23.2858 0.550071 1 1 0 0.0516258 0.164707 0.98499
102 1 -11.5284 18.3767 -1.39073 1 1 0 -0.269341 -0.0861849 0.959181
103 1 -7.72008 1.726 -0.405667 1 1 0 -0.0148175 -0.237626 0.971244
104 1 3.4705 -8.40177 0.41868 1 1 0 0.190021 -0.169334 0.967067
105 1 -21.2419 7.67427 0.287089 1 1 0 0.135951 0.163419 0.977144
106 1 17.4658 19.6481 0.0285235 1 1 0 -0.081818 -0.234239 0.96873
107 1 4.14993 8.11151 0.288478 1 1 0 0.0607484 -0.0712169 0.995609
108 1 -15.4145 9.85756 -0.376584 1 1 0 0.315959 0.352482 0.880867
109 1 -11.1954 -21.5525 -0.895608 1 1 0 0.00023377 -0.0967419 0.995309
110 1 8.05253 -21.4623 0.410498 1 1 0 0.0410239 0.19885 0.979171
111 1 -12.8519 -16.1063 -0.386049 1 1 0 -0.242455 -0.099044 0.965094
112 1 6.12951 -21.9824 0.425194 1 1 0 -0.154465 -0.128219 0.979643
113 1 -23.5428 10.7906 0.36148 1 1 0 0.185653 0.314268 0.931004
114 1 -19.9121 10.32 -0.0547053 1 1 0 0.00459771 0.143992 0.989568
115 1 17.304 23.6556 0.39796 1 1 0 0.0924732 0.107607 0.989883
116 1 -21.7231 0.55413 0.319179 1 1 0 0.200034 0.147263 0.968659
117 1 1.91166 -20.3674 0.178263 1 1 0 0.0565951 0.178816 0.982254
118 1 -12.476 -2.80309 -0.0382439 1 1 0 -0.212893 -0.00620945 0.977056
119 1 -17.8313 -4.29607 0.707828 1 1 0 0.0760985 0.0131129 0.997014
120 1 16.9774 -21.573 0.34206 1 1 0 0.180432 0.129384 0.975041
121 1 -4.49001 12.7279 -0.077586 1 1 0 -0.312201 0.00950976 0.949968
122 1 -11.9654 6.4863 -0.357994 1 1 0 0.29685 0.0927247 0.950412
123 1 9.82366 -10.4264 -0.0838442 1 1 0 0.0237875 -0.0243128 0.999421
124 1 17.8702 24.5921 0.299905 1 1 0 0.163357 -0.0996898 0.981517
125 1 -0.893533 0.694963 0.445472 1 1 0 -0.264155 0.120138 0.956968
126 1 -24.665 5.23627 0.63421 1 1 0 0.279957 -0.0813035 0.956564
127 1 0.820545 6.2356 0.475769 1 1 0 0.21347 -0.175756 0.96101
128 1 -10.2631 -23.8841 -1.01987 1 1 0 0.143832 -0.133032 0.98062
129 1 12.8448 10.4605 0.247919 1 1 0 -0.172033 -0.219403 0.960347
130 1 -21.2276 9.59731 0.110575 1 1 0 -0.0298942 0.16717 0.985475
131 1 5.89158 1.48733 0.130606 1 1 0 -0.0657125 0.33133 0.941224
132 1 1.26816 5.51837 0.426617 1 1 0 0.0927797 -0.0330486 0.995138
133 1 -22.1305 -2.09319 0.451954 1 1 0 0.0197563 0.137488 0.990306
134 1 24.4284 20.3764 -0.206056 1 1 0 0.0636412 -0.225206 0.972231
135 1 -2.3856 19.7255 -0.331006 1 1 0 -0.268268 0.0692532 0.960852
136 1 0.304242 2.66411 0.695214 1 1 0 0.00755149 0.197261 0.980322
137 1 6.59281 7.55191 -0.026679 1 1 0 0.262047 -0.0808796 0.96166
138 1 -11.4607 -18.0693 -0.635051 1 1 0 -0.161576 6.87093e-06 0.98686
139 1 -10.7865 -13.9016 -0.579185 1 1 0 0.0800937 -0.254823 0.963665
140 1 -12.7612 -9.35586 0.285556 1 1 0 -0.0309337 -0.0791315 0.996384
141 1 -11.4629 24.1047 -1.1282 1 1 0 -0.213 -0.0178809 0.976889
142 1 -23.2338 13.2877 -0.225921 1 1 0 0.205386 0.178395 0.962285
143 1 -24.0139 23.5653 -0.434117 1 1 0 0.206631 0.0520878 0.977031
144 1 1.44095 -22.5063 -0.0804364 1 1 0 -0.11988 0.0487974 0.991588
145 1 5.7877 -6.36754 0.271563 1 1 0 0.0383767 0.171904 0.984366
146 1 20.762 22.3645 -0.00169381 1 1 0 0.0180748 -0.0186425 0.999663
147 1 -7.43259 -15.0393 -0.506821 1 1 0 -0.187954 0.0188361 0.981997
148 1 -12.5445 -14.5761 -0.386198 1 1 0 0.0318267 0.130417 0.990948
149 1 -13.392 -0.512644 -0.11801 1 1 0 0.122177 0.173613 0.977206
150 1 -4.71416 13.5059 -0.211973 1 1 0 -0.147392 0.00406636 0.98907
151 1 -6.5131 10.6313 -0.607562 1 1 0 -0.0133809 -0.151139 0.988422
152 1 -3.64012 -0.762012 0.0263838 1 1 0 -0.282153 0.00276155 0.959365
153 1 -0.675534 -6.02394 0.649207 1 1 0 0.0310352 -0.0576699 0.997853
154 1 8.84314 -22.8265 0.385225 1 1 0 0.140825 0.215333 0.966333
155 1 0.629932 24.0495 0.142616 1 1 0 -0.00418398 0.294839 0.955538
156 1 -24.0152 11.5557 0.253674 1 1 0 0.104708 0.129973 0.985973
157 1 23.6289 -14.5645 -0.237672 1 1 0 -0.243768 0.18917 0.951206
158 1 -13.1845 19.2575 -1.63963 1 1 0 -0.247987 -0.0749427 0.96586
159 1 8.97933 11.3971 0.552974 1 1 0 -0.00490733 -0.0894314 0.995981
160 1 1.76888 6.39278 0.243226 1 1 0 0.191533 0.00576462 0.981469
161 1 -4.08396 5.68757 0.0505628 1 1 0 -0.034533 0.191508 0.980883
162 1 16.6193 -23.537 0.242776 1 1 0 0.147916 0.00408775 0.988991
163 1 -3.71569 -12.3207 -0.105786 1 1 0 -0.032025 -0.268132 0.96285
164 1 -13.9127 -23.6197 -1.07522 1 1 0 0.153583 -0.0154598 0.988015
165 1 -9.04216 -11.9167 -0.114754 1 1 0 -0.0873813 -0.0828548 0.992723
166 1 7.10527 -1.63414 0.313358 1 1 0 0.151039 0.113607 0.981978
167 1 1.98579 7.50609 0.48243 1 1 0 0.186565 -0.113503 0.975864
168 1 4.78453 8.65673 0.174817 1 1 0 0.0465983 0.127681 0.99072
169 1 22.0646 22.1626 -0.297915 1 1 0 0.112646 0.113799 0.987097
170 1 22.7762 22.7701 -0.189881 1 1 0 0.0537605 -0.192988 0.979727
171 1 3.57705 -13.7749 -0.0369841 1 1 0 0.00571057 -0.171713 0.985131
172 1 23.4429 19.307 -0.401061 1 1 0 0.252649 0.0428067 0.966611
173 1 6.70916 22.5962 0.765268 1 1 0 0.091542 0.279554 0.955756
174 1 -9.01185 15.2697 -1.16595 1 1 0 -0.315556 0.0419359 0.94798
175 1 16.6264 -15.7084 0.173489 1 1 0 0.230907 0.1397 0.962895
176 1 -9.58383 -22.877 -1.09136 1 1 0 -0.0567223 -0.190209 0.980104
177 1 6.41626 8.47046 0.24017 1 1 0 -0.111607 -0.158777 0.980986
178 1 -12.265 0.57494 -0.0109938 1 1 0 0.0886864 0.0129245 0.995976
179 1 22.4224 -4.13183 0.138905 1 1 0 0.327346 0.149534 0.932997
180 1 -19.9193 -20.8275 -0.199524 1 1 0 0.0665146 0.136911 0.988348
181 1 -8.60876 6.90681 -0.504386 1 1 0 -0.149514 0.0210787 0.988535
182 1 -4.73776 -14.4562 -0.274572 1 1 0 -0.0484949 -0.0157844 0.998699
183 1 -19.6779 -4.57369 0.732392 1 1 0 0.11093 -0.0851759 0.990172
184 1 6.39187 -21.1675 0.321331 1 1 0 0.0175712 0.0697297 0.997411
185 1 2.24533 -5.53282 0.895348 1 1 0 0.164422 0.00608229 0.986371
186 1 -15.2261 -9.8164 0.459585 1 1 0 -0.0311391 -0.425439 0.904451
187 1 15.0701 22.7819 0.658962 1 1 0 0.0435885 -0.2323 0.971667
188 1 22.2009 1.46591 0.777858 1 1 0 0.118979 0.00435834 0.992887
189 1 -1.50332 -1.5155 0.49049 1 1 0 -0.112301 0.0179674 0.993512
190 1 -17.0599 4.467 0.0104171 1 1 0 0.0432616 -0.084478 0.995486
191 1 12.1693 -4.82012 -0.306302 1 1 0 -0.0260347 -0.0785821 0.996568
192 1 11.5613 13.4279 0.543721 1 1 0 0.195153 0.148441 0.969474
193 1 -7.12181 11.5381 -0.530267 1 1 0 -0.0696571 -0.0875173 0.993725
194 1 11.0723 -13.5381 0.25375 1 1 0 0.249317 0.0948879 0.963762
195 1 10.8989 -10.4143 0.0329986 1 1 0 0.0260141 -0.155981 0.987417
196 1 5.51981 11.6423 0.505896 1 1 0 0.0552637 0.0405179 0.997649
197 1 -2.30414 14.0885 0.15307 1 1 0 -0.337062 0.275644 0.900228
198 1 19.4107 20.951 0.174864 1 1 0 -0.00446328 -0.0599709 0.99819
199 1 -2.36177 -15.4866 -0.335609 1 1 0 -0.0213028 -0.0103133 0.99972
200 1 -18.925 -15.6696 -0.197044 1 1 0 0.161828 0.0424367 0.985906
201 1 -10.5455 16.1886 -1.30153 1 1 0 -0.270331 0.053369 0.961287
202 1 -17.3335 -13.0085 -0.401424 1 1 0 0.0655323 -0.258413 0.963809
203 1 15.3965 2.9473 0.169194 1 1 0 -0.234486 0.165706 0.957892
204 1 19.58 -22.2327 0.0780333 1 1 0 0.177029 0.0923072 0.979867
205 1 13.7498 -5.16271 0.00939282 1 1 0 -0.100614 0.0193012 0.994738
206 1 2.12674 -4.31283 0.850564 1 1 0 0.25159 -0.124125 0.959841
207 1 9.75642 -0.911153 -0.131384 1 1 0 -0.0688728 -0.129287 0.989213
208 1 15.495 -22.2428 0.560588 1 1 0 0.156883 0.159755 0.974611
209 1 11.3179 23.6299 0.524203 1 1 0 -0.132973 -0.0833012 0.987613
210 1 0.0509567 15.1576 0.503202 1 1 0 -0.107014 -0.116268 0.987436
211 1 18.1948 8.36545 0.385215 1 1 0 -0.00270659 -0.231207 0.972901
212 1 20.2799 15.7513 -0.0260337 1 1 0 0.20006 0.135695 0.970342
213 1 3.46 8.78653 0.350327 1 1 0 0.221471 -0.162302 0.961566
214 1 -4.96357 16.0707 -0.695951 1 1 0 -0.214812 0.109017 0.970552
215 1 -17.0948 6.76026 0.252642 1 1 0 -0.0262117 -0.0440748 0.998684
216 1 19.2205 -14.4821 -0.0059987 1 1 0 0.33365 -0.0281365 0.942277
217 1 -1.53169 -4.16415 0.81099 1 1 0 -0.163412 -0.0398694 0.985752
218 1 23.925 14.0264 -0.129135 1 1 0 0.203086 0.188123 0.960919
219 1 -2.11431 -20.5464 -0.142219 1 1 0 -0.00248781 -0.0710624 0.997469
220 1 -22.1402 23.8946 -0.738772 1 1 0 -0.180894 -0.336116 0.924286
221 1 12.8045 -24.3189 0.357969 1 1 0 0.0569276 0.182235 0.981606
222 1 -5.52223 13.5016 -0.351265 1 1 0 -0.041045 0.0645416 0.997071
223 1 6.59265 -17.1641 0.128535 1 1 0 0.103618 0.0160844 0.994487
224 1 1.28683 -16.9118 -0.0578056 1 1 0 0.0550538 0.194212 0.979414
225 1 -4.35752 4.80928 0.214301 1 1 0 -0.0226329 -0.121368 0.99235
226 1 20.0399 -10.7038 -0.131232 1 1 0 -0.165834 -0.168901 0.971582
227 1 10.1945 -15.9672 0.172791 1 1 0 -0.157376 -0.105554 0.981881
228 1 -9.8565 21.9895 -1.26294 1 1 0 -0.346207 0.261735 0.900908
229 1 14.0895 21.7773 0.676753 1 1 0 0.0780473 -0.0743543 0.994173
230 1 -2.07144 -11.5082 0.359132 1 1 0 -0.0646708 -0.276769 0.958758
231 1 -12.1709 -16.5883 -0.447646 1 1 0 0.0243497 -0.265373 0.963838
232 1 -13.1327 20.8026 -1.5306 1 1 0 -0.0548369 -0.0888254 0.994537
233 1 -14.2062 -14.1483 -0.311975 1 1 0 -0.0754727 -0.0111427 0.997086
234 1 -12.3215 -1.59417 -0.164013 1 1 0 -0.105212 0.227584 0.968058
235 1 -23.922 -7.66244 -0.0761823 1 1 0 0.0348336 0.0434915 0.998446
236 1 -6.56205 -6.40066 -0.0224311 1 1 0 -0.0392876 0.0929405 0.994896
237 1 7.26413 -5.36672 0.26016 1 1 0 0.167019 0.0478933 0.98479
238 1 -9.94268 -8.02423 -0.110994 1 1 0 -0.108516 0.015525 0.993973
239 1 12.0353 -23.5896 0.471647 1 1 0 -0.00798474 0.171783 0.985102
240 1 17.3022 -3.24825 0.393493 1 1 0 -0.106501 -0.0954904 0.989717
241 1 6.39739 -20.1875 0.163703 1 1 0 -0.0155361 0.137358 0.9904
242 1 -19.759 20.8386 -0.689574 1 1 0 0.172942 -0.0125733 0.984852
243 1 -16.1192 -9.41655 0.164868 1 1 0 -0.129476 -0.327961 0.935776
244 1 24.1585 -12.6346 -0.192787 1 1 0 0.186346 0.0137629 0.982388
245 1 -19.9157 -19.9669 -0.373307 1 1 0 -0.0771041 0.133898 0.987991
246 1 11.4704 -15.3677 0.0984256 1 1 0 0.0703328 0.00678505 0.997501
247 1 22.6973 6.85149 0.69937 1 1 0 -0.0572372 0.0813599 0.99504
248 1 -13.4593 -8.74816 0.427662 1 1 0 0.0723665 -0.210956 0.974813
249 1 -6.29184 14.7015 -0.777671 1 1 0 -0.087657 0.34484 0.93456
250 1 -16.0308 23.9808 -1.11302 1 1 0 0.0425598 -0.0764696 0.996163
251 1 17.3034 -6.41251 0.418905 1 1 0 -0.173507 -0.0100827 0.984781
252 1 9.26916 -4.15716 0.0646852 1 1 0 0.0137788 -0.0140679 0.999806
253 1 -13.6035 8.85441 -0.393589 1 1 0 -0.0865018 0.122253 0.988722
254 1 19.3641 9.86254 0.588298 1 1 0 -0.119749 -0.186895 0.975054
255 1 -13.9199 -5.20329 0.423122 1 1 0 0.227284 0.127578 0.965436
256 1 -0.65091 -22.3386 -0.183188 1 1 0 -0.104119 -0.252003 0.962109
257 1 -19.9878 -16.3422 -0.0776415 1 1 0 0.00426599 -0.0917629 0.995772
258 1 6.34291 -11.6631 0.607339 1 1 0 0.0618576 0.0598232 0.996291
259 1 20.2842 -18.4288 -0.251794 1 1 0 -0.0719065 0.143846 0.986984
260 1 6.49768 -8.79892 0.362009 1 1 0 0.037106 0.0734488 0.996608
261 1 18.4098 15.068 0.228342 1 1 0 0.121413 0.202164 0.971797
262 1 2.90079 1.49441 0.395958 1 1 0 0.28777 0.197653 0.937081
263 1 -2.41091 -5.50057 0.674836 1 1 0 0.0585139 -0.152846 0.986516
264 1 -17.2919 3.55244 0.171767 1 1 0 0.036284 0.161803 0.986156
265 1 24.2388 -14.0757 -0.350999 1 1 0 0.187871 -0.0782772 0.97907
266 1 -0.108058 13.8962 0.552984 1 1 0 -0.30808 0.0283408 0.950938
267 1 -21.4478 -18.3165 -0.00503861 1 1 0 -0.124235 -0.11133 0.985988
268 1 2.37237 17.8122 0.945015 1 1 0 -0.115355 -0.00455091 0.993314
269 1 14.3813 -24.5263 0.742231 1 1 0 -0.0256559 0.0628395 0.997694
270 1 -4.89332 21.2694 -0.805072 1 1 0 -0.183752 0.169024 0.968332
271 1 -12.2175 -8.64399 0.189891 1 1 0 0.0801807 0.057732 0.995107
272 1 2.1267 -1.3816 0.66407 1 1 0 0.0599642 -0.0033581 0.998195
273 1 -6.93887 23.0697 -1.18744 1 1 0 0.160538 0.177496 0.970939
274 1 6.1719 4.76188 -0.219554 1 1 0 0.164605 -0.070523 0.983835
275 1 -17.3553 -4.92327 1.06579 1 1 0 -0.0868837 -0.010283 0.996165
276 1 -9.65498 22.9597 -1.05192 1 1 0 0.0448074 -0.235885 0.970747
277 1 -11.6718 14.6964 -1.44014 1 1 0 -0.0290962 -0.167332 0.985471
278 1 -6.83063 -19.1388 -0.37585 1 1 0 -0.151951 0.0582345 0.986671
279 1 22.6548 8.8445 0.500918 1 1 0 0.0321077 0.0404729 0.998665
280 1 -15.0418 11.9221 -0.826373 1 1 0 0.0736967 0.118309 0.990238
281 1 -13.8462 7.3532 -0.109776 1 1 0 0.144319 0.209345 0.967133
282 1 1.45249 -21.4551 0.094143 1 1 0 0.0422394 0.0379129 0.998388
283 1 -22.0092 7.37993 0.28013 1 1 0 0.149102 0.119303 0.981598
284 1 13.8904 -12.8785 -0.0289525 1 1 0 0.219705 0.224806 0.949311
285 1 -12.0553 4.59415 0.0430707 1 1 0 0.0962943 0.0525957 0.993962
286 1 13.7132 -13.9016 0.267006 1 1 0 -0.187614 0.22602 0.955885
287 1 -3.93006 24.4027 -0.598551 1 1 0 -0.155607 0.0490321 0.986601
288 1 -3.7943 -14.0238 -0.360291 1 1 0 -0.0301728 -0.111007 0.993361
289 1 -21.5701 -19.1537 0.196475 1 1 0 0.00713314 -0.25946 0.965728
290 1 -3.30728 7.62769 -0.006699 1 1 0 -0.188644 -0.0277269 0.981654
291 1 15.6884 -17.5616 0.489821 1 1 0 0.251937 -0.106814 0.961831
292 1 -13.8809 -1.42293 0.0192476 1 1 0 0.23644 0.15305 0.959516
293 1 -16.7257 -0.779634 0.40548 1 1 0 0.254187 -0.150473 0.955378
294 1 23.0926 2.8185 0.614955 1 1 0 0.0185282 -0.0769964 0.996859
295 1 19.1028 11.6565 0.664071 1 1 0 0.214931 0.16347 0.962851
296 1 -11.5386 -6.10794 -0.0852161 1 1 0 0.192703 -0.0305235 0.980782
297 1 2.97926 -9.23145 0.482697 1 1 0 0.263206 -0.0843699 0.961043
298 1 -18.2564 -13.7707 -0.211556 1 1 0 0.0162914 0.140218 0.989987
299 1 -19.1186 -5.30333 0.672166 1 1 0 0.0467877 0.110593 0.992764
300 1 13.4825 3.6337 -0.304014 1 1 0 0.0385126 0.107966 0.993408
301 1 -10.0341 -14.7445 -0.624725 1 1 0 -0.0506538 -0.175307 0.98321
302 1 -20.6889 -15.6429 -0.181518 1 1 0 -0.11249 0.103274 0.988272
303 1 -4.12604 -19.1375 -0.30183 1 1 0 -0.137506 0.0939826 0.986032
304 1 -22.1929 4.94343 0.370765 1 1 0 0.0748113 -0.155534 0.984994
305 1 -0.902287 -4.78663 0.867245 1 1 0 -0.0244256 -0.113185 0.993274
306 1 4.78574 10.8284 0.490864 1 1 0 0.0526269 -0.123252 0.990979
307 1 17.5837 -19.9181 0.0745323 1 1 0 -0.071351 0.150819 0.985983
308 1 13.0691 -2.09186 -0.328778 1 1 0 0.26923 -0.123493 0.955125
309 1 7.74487 -15.1391 0.386992 1 1 0 0.166256 0.284116 0.944265
310 1 -18.851 -22.7226 -0.387337 1 1 0 0.40677 0.0604051 0.911531
311 1 12.5146 1.66055 -0.26193 1 1 0 -0.000379244 0.108879 0.994055
312 1 -18.4384 -14.5783 -0.198052 1 1 0 0.183006 -0.00579571 0.983095
313 1 -6.68047 8.91183 -0.0864399 1 1 0 -0.232099 0.105878 0.966913
314 1 -0.1121 4.40376 0.521407 1 1 0 0.0210798 -0.0294931 0.999343
315 1 -2.4129 10.0896 0.22286 1 1 0 -0.0907755 -0.0356294 0.995234
316 1 -20.5524 -4.58481 0.650567 1 1 0 -0.0825674 0.133491 0.987605
317 1 7.04301 21.6833 0.767963 1 1 0 -0.207437 0.150935 0.966534
318 1 -1.56112 20.0338 -0.163764 1 1 0 -0.203468 0.0323552 0.978547
319 1 15.2033 21.7479 0.652936 1 1 0 -0.106831 -0.238985 0.965129
320 1 -8.56788 -12.7639 -0.213708 1 1 0 -0.100875 -0.0539294 0.993436
321 1 -3.86751 -16.0809 -0.333342 1 1 0 -0.0894904 -0.0498216 0.994741
322 1 3.97946 22.5756 0.379154 1 1 0 -0.107154 0.103824 0.988807
323 1 24.1723 -20.0981 -0.0682443 1 1 0 -0.0389539 -0.0191825 0.999057
324 1 5.92302 -7.9106 0.193957 1 1 0 0.0491479 0.0224542 0.998539
325 1 16.708 -11.4842 -0.375397 1 1 0 -0.0970207 -0.0542733 0.993801
326 1 -4.02554 -2.80985 0.302501 1 1 0 -0.295254 0.114724 0.948506
327 1 -16.0553 9.46927 -0.0386696 1 1 0 -0.0311214 -0.146087 0.988782
328 1 15.006 -16.4986 0.483289 1 1 0 -0.0270163 0.202066 0.978999
329 1 7.56034 -4.56034 0.0176689 1 1 0 0.139257 0.0915748 0.986013
330 1 13.2029 12.061 0.40865 1 1 0 -0.00526252 0.175649 0.984439
331 1 -4.98442 -5.55352 0.181129 1 1 0 -0.123377 -0.0285853 0.991948
332 1 2.59311 -3.59097 0.696933 1 1 0 0.140896 0.0152332 0.989907
333 1 -19.014 -12.9429 -0.156906 1 1 0 -0.0522411 0.220518 0.973983
334 1 14.1466 15.1157 0.250129 1 1 0 0.0375139 0.0772889 0.996303
335 1 22.7152 -16.0271 -0.275276 1 1 0 -0.0120389 0.0505626 0.998648
336 1 -18.0296 -18.484 -0.381705 1 1 0 0.0323251 -0.0846804 0.995884
337 1 18.4176 -16.6663 -0.0718131 1 1 0 0.15246 -0.0986601 0.983373
338 1 12.0204 21.917 0.891795 1 1 0 -0.216327 0.154407 0.964034
339 1 -15.9461 0.829121 0.229527 1 1 0 0.240411 -0.0645678 0.968521
340 1 21.1876 -4.30829 0.477084 1 1 0 0.209683 0.114254 0.971071
341 1 18.2334 23.6799 0.153727 1 1 0 0.048381 -0.0543073 0.997351
342 1 -2.55349 -24.0841 -0.334065 1 1 0 -0.202842 -0.017616 0.979053
343 1 24.4531 0.922848 0.56742 1 1 0 0.163973 0.00677624 0.986442
344 1 -0.628195 -16.162 -0.0616734 1 1 0 -0.124832 -0.0457215 0.991124
345 1 8.85315 17.8199 1.41565 1 1 0 0.282181 0.0963645 0.954509
346 1 -15.0944 24.201 -1.14956 1 1 0 0.0611196 -0.310864 0.948487
347 1 -7.16346 -8.18856 -0.158801 1 1 0 -0.0596835 0.103601 0.992827
348 1 7.78926 23.2223 0.565102 1 1 0 -0.191373 0.300842 0.934275
349 1 -7.03125 -9.03973 -0.174056 1 1 0 0.0485437 0.141255 0.988782
350 1 15.3149 -14.1134 0.161649 1 1 0 -0.0723581 0.212396 0.974501
351 1 -8.24553 -8.86423 -0.220793 1 1 0 -0.100688 0.00249323 0.994915
352 1 -12.7184 22.8005 -1.6582 1 1 0 -0.011873 0.111044 0.993745
353 1 4.16981 0.400212 0.177527 1 1 0 0.112614 0.135314 0.984382
354 1 23.7537 11.8586 0.326282 1 1 0 -0.193377 -0.0368982 0.98043
355 1 0.7091 23.0224 0.151818 1 1 0 -0.146867 -0.0381106 0.988422
356 1 17.7032 3.96211 0.253603 1 1 0 -0.202919 0.387728 0.899161
357 1 3.30783 -12.9029 0.237879 1 1 0 0.214147 -0.228267 0.949755
358 1 4.91212 -16.2993 0.225867 1 1 0 0.000829631 0.155265 0.987873
359 1 -21.9146 -16.6919 -0.16133 1 1 0 -0.0618882 0.0962783 0.993429
360 1 -22.9615 -15.2118 -0.306633 1 1 0 -0.0386163 0.451323 0.891525
361 1 -1.73694 5.10281 0.194416 1 1 0 -0.12809 -0.0570129 0.990122
362 1 15.4548 -7.92401 0.079409 1 1 0 -0.171268 -0.085133 0.981539
363 1 10.9579 6.73761 -0.475816 1 1 0 0.0389172 -0.155807 0.987021
364 1 -20.7882 0.589645 0.451715 1 1 0 -0.14911 0.0665802 0.986576
365 1 -23.4136 -20.7273 -0.1773 1 1 0 -0.0393729 -0.0290435 0.998802
366 1 21.4103 21.4395 -0.128963 1 1 0 0.252447 0.0328709 0.967052
367 1 -22.1768 -4.57741 0.425913 1 1 0 -0.0597348 -0.16318 0.984786
368 1 23.3689 -19.7306 -0.037788 1 1 0 0.119751 0.103455 0.987399
369 1 -17.1314 -2.86046 0.517879 1 1 0 0.0485817 -0.105699 0.993211
370 1 9.59543 -6.84166 0.0380885 1 1 0 -0.0202037 0.223937 0.974394
371 1 -23.5143 -14.0571 -0.425619 1 1 0 0.0985956 0.151349 0.983551
372 1 4.41662 -17.029 0.350483 1 1 0 -0.323656 0.0777844 0.942972
373 1 17.3531 -24.1415 0.316317 1 1 0 -0.0854356 -0.0969184 0.991619
374 1 15.1438 -23.1869 0.53886 1 1 0 -0.147887 0.124141 0.981182
375 1 -10.5385 10.2749 -0.971044 1 1 0 -0.142668 0.202394 0.968856
376 1 11.5516 19.8818 0.827337 1 1 0 0.0598376 -0.0589019 0.996469
377 1 -1.13459 -3.38353 1.04048 1 1 0 0.0456581 0.00317876 0.998952
378 1 -20.1476 12.2896 -0.400269 1 1 0 0.139716 0.178399 0.973988
379 1 -5.26014 -23.6117 -0.572262 1 1 0 -0.230455 0.10542 0.967356
380 1 23.04 3.95474 0.530318 1 1 0 0.2155 0.0502177 0.975212
381 1 -6.61507 17.2725 -0.933711 1 1 0 -0.208349 -0.01407 0.977953
382 1 4.08434 14.662 1.02423 1 1 0 -0.0526329 0.0445302 0.997621
383 1 2.26612 11.7951 0.896394 1 1 0 0.215621 -0.238853 0.946814
384 1 11.463 -11.6906 0.0535282 1 1 0 -0.0143605 -0.184723 0.982686
385 1 -4.07069 -1.80277 0.0426924 1 1 0 -0.159625 0.238597 0.95791
386 1 17.9973 -18.2587 0.0963714 1 1 0 0.17764 0.0178059 0.983934
387 1 3.59453 19.7514 1.09083 1 1 0 -0.0877009 0.113323 0.98968
388 1 4.40607 -8.4762 0.19464 1 1 0 0.237882 -0.0307102 0.970809
389 1 21.6381 -15.963 -0.224888 1 1 0 -0.0751361 0.084505 0.993586
390 1 9.58049 3.25019 -0.21375 1 1 0 0.194983 0.124384 0.972888
391 1 14.0194 0.719848 -0.214952 1 1 0 -0.083589 0.0559225 0.99493
392 1 -18.4907 -24.2525 -0.44821 1 1 0 0.176378 -0.113533 0.977753
393 1 -4.73667 -10.5962 0.124556 1 1 0 -0.243965 0.0597808 0.96794
394 1 -12.8307 -13.1267 -0.393562 1 1 0 -0.18718 -0.269177 0.944726
395 1 18.932 22.9256 0.0269613 1 1 0 0.188644 0.135532 0.972648
396 1 -18.3059 11.9221 -0.566286 1 1 0 0.140784 -0.119797 0.982766
397 1 -18.5754 -7.70947 0.434888 1 1 0 -0.115086 -0.359678 0.925952
398 1 17.4931 -14.4606 -0.103682 1 1 0 0.240906 0.003961 0.97054
399 1 16.6732 21.1403 0.391014 1 1 0 -0.0246006 -0.140659 0.989752
400 1 -11.5515 11.6857 -1.28417 1 1 0 -0.0808221 -0.0562083 0.995142
401 1 -15.8 8.32757 0.0108443 1 1 0 0.0557051 0.177137 0.982608
402 1 1.82349 -2.13482 0.800779 1 1 0 0.0919724 -0.195641 0.976353
403 1 3.19094 5.01687 0.354417 1 1 0 0.00316512 0.0282787 0.999595
404 1 12.2653 -9.29247 0.00908418 1 1 0 0.0212618 -0.0207516 0.999559
405 1 11.1457 -18.2271 -0.0518334 1 1 0 -0.054745 -0.115992 0.99174
406 1 -1.0548 -0.353091 0.646679 1 1 0 -0.0269633 0.0159709 0.999509
407 1 -1.8317 15.6311 0.120739 1 1 0 -0.347804 0.00327841 0.937562
408 1 22.4699 17.6413 -0.201508 1 1 0 0.132679 0.0563322 0.989557
409 1 16.8557 8.44516 0.146462 1 1 0 -0.209775 -0.132772 0.968693
410 1 0.690829 -11.4038 0.370059 1 1 0 0.0413042 -0.0618515 0.99723
411 1 -1.42594 -20.0774 -0.030864 1 1 0 -0.22609 0.0761245 0.971127
412 1 17.1497 -7.39186 0.62957 1 1 0 0.0344408 -0.0057317 0.99939
413 1 -2.37432 13.1332 0.203422 1 1 0 -0.0754567 0.0326808 0.996613
414 1 -17.4545 10.5559 -0.140804 1 1 0 0.170571 0.0895951 0.981264
415 1 -12.9861 6.72336 0.00712581 1 1 0 0.204484 0.0199154 0.978667
416 1 8.45459 -7.32053 0.102821 1 1 0 0.21771 0.212806 0.952531
417 1 3.82676 -17.8193 0.0536856 1 1 0 -0.113228 -0.12093 0.986182
418 1 -6.42862 18.2256 -0.729629 1 1 0 0.061909 -0.0697915 0.995639
419 1 24.5996 -4.43036 -0.128263 1 1 0 -0.0336358 0.0718925 0.996845
420 1 -14.1167 -6.92013 0.659272 1 1 0 0.151042 -0.137761 0.978881
421 1 5.44925 -22.4148 0.223698 1 1 0 -0.0965034 -0.133939 0.98628
422 1 -0.696099 -1.15289 0.650219 1 1 0 -0.0487393 0.158768 0.986112
423 1 -20.3755 -1.75132 0.212267 1 1 0 -0.0961997 0.134993 0.986166
424 1 9.59147 -5.98614 -0.23746 1 1 0 0.0848728 -0.0490618 0.995183
425 1 4.13558 23.4655 0.435003 1 1 0 -0.0375714 0.0193133 0.999107
426 1 13.5593 -23.8197 0.539336 1 1 0 -0.0181917 0.090025 0.995773
427 1 -19.8205 -21.8168 -0.0749307 1 1 0 -0.00480458 -0.017217 0.99984
428 1 10.0891 -4.11319 -0.183066 1 1 0 0.288076 0.00749626 0.957578
429 1 -9.68941 -2.28256 -0.0553454 1 1 0 0.188152 -0.0232354 0.981865
430 1 -3.60347 23.2498 -0.511806 1 1 0 -0.208298 0.00316867 0.97806
431 1 7.74837 22.409 0.948621 1 1 0 -0.144004 0.0329297 0.989029
432 1 2.05835 12.9841 0.881119 1 1 0 -0.0196637 0.0781132 0.996751
433 1 13.255 -10.7954 -0.19183 1 1 0 -0.105381 -0.0683702 0.992079
434 1 3.25705 -19.9236 -0.180646 1 1 0 -0.010176 0.0399916 0.999148
435 1 -9.66068 12.7761 -1.2094 1 1 0 -0.150202 -0.113817 0.982082
436 1 24.1595 8.99673 0.378144 1 1 0 0.151695 0.17598 0.972635
437 1 22.6144 4.71028 0.490697 1 1 0 0.114023 0.0407766 0.992641
438 1 21.1168 3.70681 0.817943 1 1 0 0.00790225 0.124306 0.992213
439 1 19.3992 13.5828 0.525046 1 1 0 0.200197 -0.00321445 0.97975
440 1 -7.77348 -0.279906 -0.117662 1 1 0 0.282525 -0.0697996 0.956717
441 1 16.5139 -24.3841 0.317385 1 1 0 0.140202 0.0939415 0.985656
442 1 23.0203 1.69375 0.523087 1 1 0 0.180419 0.00117486 0.983589
443 1 -16.3697 3.7395 0.038341 1 1 0 -0.0610213 0.0524604 0.996757
444 1 13.8072 -0.422659 -0.17493 1 1 0 -0.159121 0.0667414 0.985001
445 1 7.47142 21.04 0.943815 1 1 0 -0.0596179 0.134978 0.989053
446 1 4.73414 -9.71907 0.391219 1 1 0 0.10405 0.145233 0.983911